version 2
run General-0-20140303-13:46:19-15218
attr configname General
attr datetime 20140303-13:46:19
attr experiment General
attr inifile eee_intel_test.ini
attr iterationvars ""
attr iterationvars2 $repetition=0
attr measurement ""
attr network eeepowerlink.networks.EEE_intel_test
attr processid 15218
attr repetition 0
attr replication #0
attr resultdir results
attr runnumber 0
attr seedset 0

vector 84  EEE_intel_test.PLC.lpi_client  "EEE-Link Power"  ETV
vector 85  EEE_intel_test.PLC.lpi_client  "NoEEE-Link Power"  ETV
vector 86  EEE_intel_test.Host1.lpi_client  "EEE-Link Power"  ETV
vector 87  EEE_intel_test.Host1.lpi_client  "NoEEE-Link Power"  ETV
vector 89  EEE_intel_test.switch.eth[0].lpi_client  "EEE-Link Power"  ETV
vector 90  EEE_intel_test.switch.eth[0].lpi_client  "NoEEE-Link Power"  ETV
vector 91  EEE_intel_test.switch.eth[1].lpi_client  "EEE-Link Power"  ETV
vector 92  EEE_intel_test.switch.eth[1].lpi_client  "NoEEE-Link Power"  ETV
vector 93  EEE_intel_test.switch.eth[2].lpi_client  "EEE-Link Power"  ETV
vector 94  EEE_intel_test.switch.eth[2].lpi_client  "NoEEE-Link Power"  ETV
vector 95  EEE_intel_test.Host2.lpi_client  "EEE-Link Power"  ETV
vector 96  EEE_intel_test.Host2.lpi_client  "NoEEE-Link Power"  ETV
vector 97  EEE_intel_test.PLC.MN  "EEE-Link Power"  ETV
vector 98  EEE_intel_test.PLC.MN  "NoEEE-Link Power"  ETV
vector 13  EEE_intel_test.PLC.lpi_client  linkPLPI_time:vector  ETV
attr source  partial_lpi_time
vector 29  EEE_intel_test.Host1.lpi_client  linkPLPI_time:vector  ETV
attr source  partial_lpi_time
vector 45  EEE_intel_test.switch.eth[0].lpi_client  linkPLPI_time:vector  ETV
attr source  partial_lpi_time
vector 56  EEE_intel_test.switch.eth[1].lpi_client  linkPLPI_time:vector  ETV
attr source  partial_lpi_time
vector 67  EEE_intel_test.switch.eth[2].lpi_client  linkPLPI_time:vector  ETV
attr source  partial_lpi_time
vector 81  EEE_intel_test.Host2.lpi_client  linkPLPI_time:vector  ETV
attr source  partial_lpi_time
vector 15  EEE_intel_test.PLC.MN  sentPk:vector(packetBytes)  ETV
attr interpolationmode  none
attr source  sentPk
attr title  "packets sent, vector(packetBytes)"
vector 0  EEE_intel_test.PLC.llc  encapPk:vector(packetBytes)  ETV
attr interpolationmode  none
attr source  encapPk
attr title  "packets encapsulated, vector(packetBytes)"
vector 8  EEE_intel_test.PLC.mac  rxPkFromHL:vector(packetBytes)  ETV
attr interpolationmode  none
attr source  rxPkFromHL
attr title  "packet bytes from higher layer, vector(packetBytes)"
vector 12  EEE_intel_test.PLC.lpi_client  linkLPI_time:vector  ETV
attr source  lpi_time
vector 3  EEE_intel_test.PLC.mac  txPk:vector(packetBytes)  ETV
attr interpolationmode  none
attr source  txPk
attr title  "packets transmitted, vector(packetBytes)"
vector 36  EEE_intel_test.switch.eth[0].mac  rxPkOk:vector(packetBytes)  ETV
attr interpolationmode  none
attr source  rxPkOk
attr title  "packets received OK, vector(packetBytes)"
vector 37  EEE_intel_test.switch.eth[0].mac  passedUpPk:vector(packetBytes)  ETV
attr interpolationmode  none
attr source  packetSentToUpper
attr title  "packets passed to higher layer, vector(packetBytes)"
vector 88  EEE_intel_test.switch.relayUnit  "buffer level"  ETV
vector 51  EEE_intel_test.switch.eth[1].mac  rxPkFromHL:vector(packetBytes)  ETV
attr interpolationmode  none
attr source  rxPkFromHL
attr title  "packet bytes from higher layer, vector(packetBytes)"
vector 62  EEE_intel_test.switch.eth[2].mac  rxPkFromHL:vector(packetBytes)  ETV
attr interpolationmode  none
attr source  rxPkFromHL
attr title  "packet bytes from higher layer, vector(packetBytes)"
vector 55  EEE_intel_test.switch.eth[1].lpi_client  linkLPI_time:vector  ETV
attr source  lpi_time
vector 66  EEE_intel_test.switch.eth[2].lpi_client  linkLPI_time:vector  ETV
attr source  lpi_time
vector 46  EEE_intel_test.switch.eth[1].mac  txPk:vector(packetBytes)  ETV
attr interpolationmode  none
attr source  txPk
attr title  "packets transmitted, vector(packetBytes)"
vector 57  EEE_intel_test.switch.eth[2].mac  txPk:vector(packetBytes)  ETV
attr interpolationmode  none
attr source  txPk
attr title  "packets transmitted, vector(packetBytes)"
vector 20  EEE_intel_test.Host1.mac  rxPkOk:vector(packetBytes)  ETV
attr interpolationmode  none
attr source  rxPkOk
attr title  "packets received OK, vector(packetBytes)"
vector 21  EEE_intel_test.Host1.mac  passedUpPk:vector(packetBytes)  ETV
attr interpolationmode  none
attr source  packetSentToUpper
attr title  "packets passed to higher layer, vector(packetBytes)"
vector 72  EEE_intel_test.Host2.mac  rxPkOk:vector(packetBytes)  ETV
attr interpolationmode  none
attr source  rxPkOk
attr title  "packets received OK, vector(packetBytes)"
vector 73  EEE_intel_test.Host2.mac  passedUpPk:vector(packetBytes)  ETV
attr interpolationmode  none
attr source  packetSentToUpper
attr title  "packets passed to higher layer, vector(packetBytes)"
vector 17  EEE_intel_test.Host1.llc  decapPk:vector(packetBytes)  ETV
attr interpolationmode  none
attr source  decapPk
attr title  "packets decapsulated, vector(packetBytes)"
vector 69  EEE_intel_test.Host2.llc  decapPk:vector(packetBytes)  ETV
attr interpolationmode  none
attr source  decapPk
attr title  "packets decapsulated, vector(packetBytes)"
vector 79  EEE_intel_test.Host2.mac  droppedPkNotForUs:vector(packetBytes)  ETV
attr interpolationmode  none
attr source  dropPkNotForUs
attr title  "packets dropped/not for us, vector(packetBytes)"
vector 30  EEE_intel_test.Host1.CN  rcvdPk:vector(packetBytes)  ETV
attr interpolationmode  none
attr source  rcvdPk
attr title  "packets received, vector(packetBytes)"
vector 31  EEE_intel_test.Host1.CN  sentPk:vector(packetBytes)  ETV
attr interpolationmode  none
attr source  sentPk
attr title  "packets sent, vector(packetBytes)"
vector 16  EEE_intel_test.Host1.llc  encapPk:vector(packetBytes)  ETV
attr interpolationmode  none
attr source  encapPk
attr title  "packets encapsulated, vector(packetBytes)"
vector 24  EEE_intel_test.Host1.mac  rxPkFromHL:vector(packetBytes)  ETV
attr interpolationmode  none
attr source  rxPkFromHL
attr title  "packet bytes from higher layer, vector(packetBytes)"
vector 28  EEE_intel_test.Host1.lpi_client  linkLPI_time:vector  ETV
attr source  lpi_time
vector 19  EEE_intel_test.Host1.mac  txPk:vector(packetBytes)  ETV
attr interpolationmode  none
attr source  txPk
attr title  "packets transmitted, vector(packetBytes)"
vector 47  EEE_intel_test.switch.eth[1].mac  rxPkOk:vector(packetBytes)  ETV
attr interpolationmode  none
attr source  rxPkOk
attr title  "packets received OK, vector(packetBytes)"
vector 48  EEE_intel_test.switch.eth[1].mac  passedUpPk:vector(packetBytes)  ETV
attr interpolationmode  none
attr source  packetSentToUpper
attr title  "packets passed to higher layer, vector(packetBytes)"
vector 40  EEE_intel_test.switch.eth[0].mac  rxPkFromHL:vector(packetBytes)  ETV
attr interpolationmode  none
attr source  rxPkFromHL
attr title  "packet bytes from higher layer, vector(packetBytes)"
vector 44  EEE_intel_test.switch.eth[0].lpi_client  linkLPI_time:vector  ETV
attr source  lpi_time
vector 35  EEE_intel_test.switch.eth[0].mac  txPk:vector(packetBytes)  ETV
attr interpolationmode  none
attr source  txPk
attr title  "packets transmitted, vector(packetBytes)"
vector 4  EEE_intel_test.PLC.mac  rxPkOk:vector(packetBytes)  ETV
attr interpolationmode  none
attr source  rxPkOk
attr title  "packets received OK, vector(packetBytes)"
vector 5  EEE_intel_test.PLC.mac  passedUpPk:vector(packetBytes)  ETV
attr interpolationmode  none
attr source  packetSentToUpper
attr title  "packets passed to higher layer, vector(packetBytes)"
vector 1  EEE_intel_test.PLC.llc  decapPk:vector(packetBytes)  ETV
attr interpolationmode  none
attr source  decapPk
attr title  "packets decapsulated, vector(packetBytes)"
vector 14  EEE_intel_test.PLC.MN  rcvdPk:vector(packetBytes)  ETV
attr interpolationmode  none
attr source  rcvdPk
attr title  "packets received, vector(packetBytes)"
vector 27  EEE_intel_test.Host1.mac  droppedPkNotForUs:vector(packetBytes)  ETV
attr interpolationmode  none
attr source  dropPkNotForUs
attr title  "packets dropped/not for us, vector(packetBytes)"
vector 82  EEE_intel_test.Host2.CN  rcvdPk:vector(packetBytes)  ETV
attr interpolationmode  none
attr source  rcvdPk
attr title  "packets received, vector(packetBytes)"
vector 83  EEE_intel_test.Host2.CN  sentPk:vector(packetBytes)  ETV
attr interpolationmode  none
attr source  sentPk
attr title  "packets sent, vector(packetBytes)"
vector 68  EEE_intel_test.Host2.llc  encapPk:vector(packetBytes)  ETV
attr interpolationmode  none
attr source  encapPk
attr title  "packets encapsulated, vector(packetBytes)"
vector 76  EEE_intel_test.Host2.mac  rxPkFromHL:vector(packetBytes)  ETV
attr interpolationmode  none
attr source  rxPkFromHL
attr title  "packet bytes from higher layer, vector(packetBytes)"
vector 80  EEE_intel_test.Host2.lpi_client  linkLPI_time:vector  ETV
attr source  lpi_time
vector 71  EEE_intel_test.Host2.mac  txPk:vector(packetBytes)  ETV
attr interpolationmode  none
attr source  txPk
attr title  "packets transmitted, vector(packetBytes)"
vector 58  EEE_intel_test.switch.eth[2].mac  rxPkOk:vector(packetBytes)  ETV
attr interpolationmode  none
attr source  rxPkOk
attr title  "packets received OK, vector(packetBytes)"
vector 59  EEE_intel_test.switch.eth[2].mac  passedUpPk:vector(packetBytes)  ETV
attr interpolationmode  none
attr source  packetSentToUpper
attr title  "packets passed to higher layer, vector(packetBytes)"
84	0	0	0
84	0	0	351
84	25	0.000001	351
84	25	0.000001	351
84	27	0.000001	351
84	27	0.000001	351
84	31	0.000220999999	351
84	31	0.000220999999	204.5
84	33	0.000220999999	204.5
84	33	0.000220999999	58
84	41	0.001	58
84	41	0.001	58
84	42	0.0010205	58
84	42	0.0010205	204.5
84	48	0.001027219999	204.5
84	48	0.001027219999	204.5
84	81	0.001103859997	204.5
84	81	0.001103859997	204.5
84	118	0.001188219998	204.5
84	118	0.001188219998	351
84	135	0.001194939997	351
84	135	0.001194939997	351
84	141	0.001221299997	351
84	141	0.001221299997	351
84	192	0.001312379997	351
84	192	0.001312379997	351
84	199	0.001338739997	351
84	199	0.001338739997	351
84	221	0.001532379996	351
84	221	0.001532379996	204.5
84	222	0.001558739996	204.5
84	222	0.001558739996	58
84	229	0.006	58
84	229	0.006	58
84	230	0.0060205	58
84	230	0.0060205	204.5
84	236	0.006027219999	204.5
84	236	0.006027219999	204.5
84	269	0.006103859997	204.5
84	269	0.006103859997	204.5
84	306	0.006188219998	204.5
84	306	0.006188219998	351
84	323	0.006194939997	351
84	323	0.006194939997	351
84	329	0.006221299997	351
84	329	0.006221299997	351
84	380	0.006312379997	351
84	380	0.006312379997	351
84	387	0.006338739997	351
84	387	0.006338739997	351
84	409	0.006532379996	351
84	409	0.006532379996	204.5
84	410	0.006558739996	204.5
84	410	0.006558739996	58
84	417	0.011	58
84	417	0.011	58
84	418	0.0110205	58
84	418	0.0110205	204.5
84	424	0.011027219999	204.5
84	424	0.011027219999	204.5
84	457	0.011103859997	204.5
84	457	0.011103859997	204.5
84	494	0.011188219998	204.5
84	494	0.011188219998	351
84	511	0.011194939997	351
84	511	0.011194939997	351
84	517	0.011221299997	351
84	517	0.011221299997	351
84	568	0.011312379997	351
84	568	0.011312379997	351
84	575	0.011338739997	351
84	575	0.011338739997	351
84	597	0.011532379996	351
84	597	0.011532379996	204.5
84	598	0.011558739996	204.5
84	598	0.011558739996	58
84	605	0.016	58
84	605	0.016	58
84	606	0.0160205	58
84	606	0.0160205	204.5
84	612	0.016027219999	204.5
84	612	0.016027219999	204.5
84	645	0.016103859997	204.5
84	645	0.016103859997	204.5
84	682	0.016188219998	204.5
84	682	0.016188219998	351
84	699	0.016194939997	351
84	699	0.016194939997	351
84	705	0.016221299997	351
84	705	0.016221299997	351
84	756	0.016312379997	351
84	756	0.016312379997	351
84	763	0.016338739997	351
84	763	0.016338739997	351
84	785	0.016532379996	351
84	785	0.016532379996	204.5
84	786	0.016558739996	204.5
84	786	0.016558739996	58
85	0	0	0
85	0	0	351
85	31	0.000220999999	351
85	31	0.000220999999	227
85	33	0.000220999999	227
85	33	0.000220999999	103
85	42	0.0010205	103
85	42	0.0010205	227
85	118	0.001188219998	227
85	118	0.001188219998	351
85	221	0.001532379996	351
85	221	0.001532379996	227
85	222	0.001558739996	227
85	222	0.001558739996	103
85	230	0.0060205	103
85	230	0.0060205	227
85	306	0.006188219998	227
85	306	0.006188219998	351
85	409	0.006532379996	351
85	409	0.006532379996	227
85	410	0.006558739996	227
85	410	0.006558739996	103
85	418	0.0110205	103
85	418	0.0110205	227
85	494	0.011188219998	227
85	494	0.011188219998	351
85	597	0.011532379996	351
85	597	0.011532379996	227
85	598	0.011558739996	227
85	598	0.011558739996	103
85	606	0.0160205	103
85	606	0.0160205	227
85	682	0.016188219998	227
85	682	0.016188219998	351
85	785	0.016532379996	351
85	785	0.016532379996	227
85	786	0.016558739996	227
85	786	0.016558739996	103
86	0	0	0
86	0	0	351
86	26	0.000001	351
86	26	0.000001	351
86	28	0.000001	351
86	28	0.000001	351
86	32	0.000220999999	351
86	32	0.000220999999	204.5
86	34	0.000220999999	204.5
86	34	0.000220999999	58
86	56	0.00104886	58
86	56	0.00104886	204.5
86	70	0.001055579999	204.5
86	70	0.001055579999	204.5
86	97	0.001132219997	204.5
86	97	0.001132219997	204.5
86	103	0.001139359998	204.5
86	103	0.001139359998	204.5
86	104	0.001159859998	204.5
86	104	0.001159859998	351
86	110	0.001166579997	351
86	110	0.001166579997	351
86	157	0.001249659997	351
86	157	0.001249659997	351
86	193	0.001312379997	351
86	193	0.001312379997	351
86	217	0.001367099997	351
86	217	0.001367099997	351
86	219	0.001386579996	351
86	219	0.001386579996	204.5
86	223	0.001587099996	204.5
86	223	0.001587099996	58
86	244	0.00604886	58
86	244	0.00604886	204.5
86	258	0.006055579999	204.5
86	258	0.006055579999	204.5
86	285	0.006132219997	204.5
86	285	0.006132219997	204.5
86	291	0.006139359998	204.5
86	291	0.006139359998	204.5
86	292	0.006159859998	204.5
86	292	0.006159859998	351
86	298	0.006166579997	351
86	298	0.006166579997	351
86	345	0.006249659997	351
86	345	0.006249659997	351
86	381	0.006312379997	351
86	381	0.006312379997	351
86	405	0.006367099997	351
86	405	0.006367099997	351
86	407	0.006386579996	351
86	407	0.006386579996	204.5
86	411	0.006587099996	204.5
86	411	0.006587099996	58
86	432	0.01104886	58
86	432	0.01104886	204.5
86	446	0.011055579999	204.5
86	446	0.011055579999	204.5
86	473	0.011132219997	204.5
86	473	0.011132219997	204.5
86	479	0.011139359998	204.5
86	479	0.011139359998	204.5
86	480	0.011159859998	204.5
86	480	0.011159859998	351
86	486	0.011166579997	351
86	486	0.011166579997	351
86	533	0.011249659997	351
86	533	0.011249659997	351
86	569	0.011312379997	351
86	569	0.011312379997	351
86	593	0.011367099997	351
86	593	0.011367099997	351
86	595	0.011386579996	351
86	595	0.011386579996	204.5
86	599	0.011587099996	204.5
86	599	0.011587099996	58
86	620	0.01604886	58
86	620	0.01604886	204.5
86	634	0.016055579999	204.5
86	634	0.016055579999	204.5
86	661	0.016132219997	204.5
86	661	0.016132219997	204.5
86	667	0.016139359998	204.5
86	667	0.016139359998	204.5
86	668	0.016159859998	204.5
86	668	0.016159859998	351
86	674	0.016166579997	351
86	674	0.016166579997	351
86	721	0.016249659997	351
86	721	0.016249659997	351
86	757	0.016312379997	351
86	757	0.016312379997	351
86	781	0.016367099997	351
86	781	0.016367099997	351
86	783	0.016386579996	351
86	783	0.016386579996	204.5
86	787	0.016587099996	204.5
86	787	0.016587099996	58
87	0	0	0
87	0	0	351
87	32	0.000220999999	351
87	32	0.000220999999	227
87	34	0.000220999999	227
87	34	0.000220999999	103
87	56	0.00104886	103
87	56	0.00104886	227
87	104	0.001159859998	227
87	104	0.001159859998	351
87	219	0.001386579996	351
87	219	0.001386579996	227
87	223	0.001587099996	227
87	223	0.001587099996	103
87	244	0.00604886	103
87	244	0.00604886	227
87	292	0.006159859998	227
87	292	0.006159859998	351
87	407	0.006386579996	351
87	407	0.006386579996	227
87	411	0.006587099996	227
87	411	0.006587099996	103
87	432	0.01104886	103
87	432	0.01104886	227
87	480	0.011159859998	227
87	480	0.011159859998	351
87	595	0.011386579996	351
87	595	0.011386579996	227
87	599	0.011587099996	227
87	599	0.011587099996	103
87	620	0.01604886	103
87	620	0.01604886	227
87	668	0.016159859998	227
87	668	0.016159859998	351
87	783	0.016386579996	351
87	783	0.016386579996	227
87	787	0.016587099996	227
87	787	0.016587099996	103
89	0	0	0
89	0	0	351
89	25	0.000001	351
89	25	0.000001	351
89	27	0.000001	351
89	27	0.000001	351
89	31	0.000220999999	351
89	31	0.000220999999	204.5
89	33	0.000220999999	204.5
89	33	0.000220999999	58
89	42	0.0010205	58
89	42	0.0010205	204.5
89	48	0.001027219999	204.5
89	48	0.001027219999	204.5
89	81	0.001103859997	204.5
89	81	0.001103859997	204.5
89	116	0.001167719998	204.5
89	116	0.001167719998	204.5
89	118	0.001188219998	204.5
89	118	0.001188219998	351
89	135	0.001194939997	351
89	135	0.001194939997	351
89	141	0.001221299997	351
89	141	0.001221299997	351
89	192	0.001312379997	351
89	192	0.001312379997	351
89	199	0.001338739997	351
89	199	0.001338739997	351
89	221	0.001532379996	351
89	221	0.001532379996	204.5
89	222	0.001558739996	204.5
89	222	0.001558739996	58
89	230	0.0060205	58
89	230	0.0060205	204.5
89	236	0.006027219999	204.5
89	236	0.006027219999	204.5
89	269	0.006103859997	204.5
89	269	0.006103859997	204.5
89	304	0.006167719998	204.5
89	304	0.006167719998	204.5
89	306	0.006188219998	204.5
89	306	0.006188219998	351
89	323	0.006194939997	351
89	323	0.006194939997	351
89	329	0.006221299997	351
89	329	0.006221299997	351
89	380	0.006312379997	351
89	380	0.006312379997	351
89	387	0.006338739997	351
89	387	0.006338739997	351
89	409	0.006532379996	351
89	409	0.006532379996	204.5
89	410	0.006558739996	204.5
89	410	0.006558739996	58
89	418	0.0110205	58
89	418	0.0110205	204.5
89	424	0.011027219999	204.5
89	424	0.011027219999	204.5
89	457	0.011103859997	204.5
89	457	0.011103859997	204.5
89	492	0.011167719998	204.5
89	492	0.011167719998	204.5
89	494	0.011188219998	204.5
89	494	0.011188219998	351
89	511	0.011194939997	351
89	511	0.011194939997	351
89	517	0.011221299997	351
89	517	0.011221299997	351
89	568	0.011312379997	351
89	568	0.011312379997	351
89	575	0.011338739997	351
89	575	0.011338739997	351
89	597	0.011532379996	351
89	597	0.011532379996	204.5
89	598	0.011558739996	204.5
89	598	0.011558739996	58
89	606	0.0160205	58
89	606	0.0160205	204.5
89	612	0.016027219999	204.5
89	612	0.016027219999	204.5
89	645	0.016103859997	204.5
89	645	0.016103859997	204.5
89	680	0.016167719998	204.5
89	680	0.016167719998	204.5
89	682	0.016188219998	204.5
89	682	0.016188219998	351
89	699	0.016194939997	351
89	699	0.016194939997	351
89	705	0.016221299997	351
89	705	0.016221299997	351
89	756	0.016312379997	351
89	756	0.016312379997	351
89	763	0.016338739997	351
89	763	0.016338739997	351
89	785	0.016532379996	351
89	785	0.016532379996	204.5
89	786	0.016558739996	204.5
89	786	0.016558739996	58
90	0	0	0
90	0	0	351
90	31	0.000220999999	351
90	31	0.000220999999	227
90	33	0.000220999999	227
90	33	0.000220999999	103
90	42	0.0010205	103
90	42	0.0010205	227
90	118	0.001188219998	227
90	118	0.001188219998	351
90	221	0.001532379996	351
90	221	0.001532379996	227
90	222	0.001558739996	227
90	222	0.001558739996	103
90	230	0.0060205	103
90	230	0.0060205	227
90	306	0.006188219998	227
90	306	0.006188219998	351
90	409	0.006532379996	351
90	409	0.006532379996	227
90	410	0.006558739996	227
90	410	0.006558739996	103
90	418	0.0110205	103
90	418	0.0110205	227
90	494	0.011188219998	227
90	494	0.011188219998	351
90	597	0.011532379996	351
90	597	0.011532379996	227
90	598	0.011558739996	227
90	598	0.011558739996	103
90	606	0.0160205	103
90	606	0.0160205	227
90	682	0.016188219998	227
90	682	0.016188219998	351
90	785	0.016532379996	351
90	785	0.016532379996	227
90	786	0.016558739996	227
90	786	0.016558739996	103
91	0	0	0
91	0	0	351
91	26	0.000001	351
91	26	0.000001	351
91	28	0.000001	351
91	28	0.000001	351
91	32	0.000220999999	351
91	32	0.000220999999	204.5
91	34	0.000220999999	204.5
91	34	0.000220999999	58
91	54	0.00102836	58
91	54	0.00102836	58
91	56	0.00104886	58
91	56	0.00104886	204.5
91	70	0.001055579999	204.5
91	70	0.001055579999	204.5
91	97	0.001132219997	204.5
91	97	0.001132219997	204.5
91	104	0.001159859998	204.5
91	104	0.001159859998	351
91	110	0.001166579997	351
91	110	0.001166579997	351
91	157	0.001249659997	351
91	157	0.001249659997	351
91	193	0.001312379997	351
91	193	0.001312379997	351
91	217	0.001367099997	351
91	217	0.001367099997	351
91	219	0.001386579996	351
91	219	0.001386579996	204.5
91	223	0.001587099996	204.5
91	223	0.001587099996	58
91	242	0.00602836	58
91	242	0.00602836	58
91	244	0.00604886	58
91	244	0.00604886	204.5
91	258	0.006055579999	204.5
91	258	0.006055579999	204.5
91	285	0.006132219997	204.5
91	285	0.006132219997	204.5
91	292	0.006159859998	204.5
91	292	0.006159859998	351
91	298	0.006166579997	351
91	298	0.006166579997	351
91	345	0.006249659997	351
91	345	0.006249659997	351
91	381	0.006312379997	351
91	381	0.006312379997	351
91	405	0.006367099997	351
91	405	0.006367099997	351
91	407	0.006386579996	351
91	407	0.006386579996	204.5
91	411	0.006587099996	204.5
91	411	0.006587099996	58
91	430	0.01102836	58
91	430	0.01102836	58
91	432	0.01104886	58
91	432	0.01104886	204.5
91	446	0.011055579999	204.5
91	446	0.011055579999	204.5
91	473	0.011132219997	204.5
91	473	0.011132219997	204.5
91	480	0.011159859998	204.5
91	480	0.011159859998	351
91	486	0.011166579997	351
91	486	0.011166579997	351
91	533	0.011249659997	351
91	533	0.011249659997	351
91	569	0.011312379997	351
91	569	0.011312379997	351
91	593	0.011367099997	351
91	593	0.011367099997	351
91	595	0.011386579996	351
91	595	0.011386579996	204.5
91	599	0.011587099996	204.5
91	599	0.011587099996	58
91	618	0.01602836	58
91	618	0.01602836	58
91	620	0.01604886	58
91	620	0.01604886	204.5
91	634	0.016055579999	204.5
91	634	0.016055579999	204.5
91	661	0.016132219997	204.5
91	661	0.016132219997	204.5
91	668	0.016159859998	204.5
91	668	0.016159859998	351
91	674	0.016166579997	351
91	674	0.016166579997	351
91	721	0.016249659997	351
91	721	0.016249659997	351
91	757	0.016312379997	351
91	757	0.016312379997	351
91	781	0.016367099997	351
91	781	0.016367099997	351
91	783	0.016386579996	351
91	783	0.016386579996	204.5
91	787	0.016587099996	204.5
91	787	0.016587099996	58
92	0	0	0
92	0	0	351
92	32	0.000220999999	351
92	32	0.000220999999	227
92	34	0.000220999999	227
92	34	0.000220999999	103
92	56	0.00104886	103
92	56	0.00104886	227
92	104	0.001159859998	227
92	104	0.001159859998	351
92	219	0.001386579996	351
92	219	0.001386579996	227
92	223	0.001587099996	227
92	223	0.001587099996	103
92	244	0.00604886	103
92	244	0.00604886	227
92	292	0.006159859998	227
92	292	0.006159859998	351
92	407	0.006386579996	351
92	407	0.006386579996	227
92	411	0.006587099996	227
92	411	0.006587099996	103
92	432	0.01104886	103
92	432	0.01104886	227
92	480	0.011159859998	227
92	480	0.011159859998	351
92	595	0.011386579996	351
92	595	0.011386579996	227
92	599	0.011587099996	227
92	599	0.011587099996	103
92	620	0.01604886	103
92	620	0.01604886	227
92	668	0.016159859998	227
92	668	0.016159859998	351
92	783	0.016386579996	351
92	783	0.016386579996	227
92	787	0.016587099996	227
92	787	0.016587099996	103
93	0	0	0
93	0	0	351
93	29	0.000001	351
93	29	0.000001	351
93	30	0.000001	351
93	30	0.000001	351
93	35	0.000220999999	351
93	35	0.000220999999	204.5
93	36	0.000220999999	204.5
93	36	0.000220999999	58
93	55	0.00102836	58
93	55	0.00102836	58
93	57	0.00104886	58
93	57	0.00104886	204.5
93	71	0.001055579999	204.5
93	71	0.001055579999	204.5
93	98	0.001132219997	204.5
93	98	0.001132219997	204.5
93	134	0.001194939997	204.5
93	134	0.001194939997	204.5
93	158	0.001249659997	204.5
93	158	0.001249659997	204.5
93	164	0.001277299998	204.5
93	164	0.001277299998	351
93	170	0.001284019997	351
93	170	0.001284019997	351
93	218	0.001367099997	351
93	218	0.001367099997	351
93	220	0.001504019996	351
93	220	0.001504019996	204.5
93	224	0.001587099996	204.5
93	224	0.001587099996	58
93	243	0.00602836	58
93	243	0.00602836	58
93	245	0.00604886	58
93	245	0.00604886	204.5
93	259	0.006055579999	204.5
93	259	0.006055579999	204.5
93	286	0.006132219997	204.5
93	286	0.006132219997	204.5
93	322	0.006194939997	204.5
93	322	0.006194939997	204.5
93	346	0.006249659997	204.5
93	346	0.006249659997	204.5
93	352	0.006277299998	204.5
93	352	0.006277299998	351
93	358	0.006284019997	351
93	358	0.006284019997	351
93	406	0.006367099997	351
93	406	0.006367099997	351
93	408	0.006504019996	351
93	408	0.006504019996	204.5
93	412	0.006587099996	204.5
93	412	0.006587099996	58
93	431	0.01102836	58
93	431	0.01102836	58
93	433	0.01104886	58
93	433	0.01104886	204.5
93	447	0.011055579999	204.5
93	447	0.011055579999	204.5
93	474	0.011132219997	204.5
93	474	0.011132219997	204.5
93	510	0.011194939997	204.5
93	510	0.011194939997	204.5
93	534	0.011249659997	204.5
93	534	0.011249659997	204.5
93	540	0.011277299998	204.5
93	540	0.011277299998	351
93	546	0.011284019997	351
93	546	0.011284019997	351
93	594	0.011367099997	351
93	594	0.011367099997	351
93	596	0.011504019996	351
93	596	0.011504019996	204.5
93	600	0.011587099996	204.5
93	600	0.011587099996	58
93	619	0.01602836	58
93	619	0.01602836	58
93	621	0.01604886	58
93	621	0.01604886	204.5
93	635	0.016055579999	204.5
93	635	0.016055579999	204.5
93	662	0.016132219997	204.5
93	662	0.016132219997	204.5
93	698	0.016194939997	204.5
93	698	0.016194939997	204.5
93	722	0.016249659997	204.5
93	722	0.016249659997	204.5
93	728	0.016277299998	204.5
93	728	0.016277299998	351
93	734	0.016284019997	351
93	734	0.016284019997	351
93	782	0.016367099997	351
93	782	0.016367099997	351
93	784	0.016504019996	351
93	784	0.016504019996	204.5
93	788	0.016587099996	204.5
93	788	0.016587099996	58
94	0	0	0
94	0	0	351
94	35	0.000220999999	351
94	35	0.000220999999	227
94	36	0.000220999999	227
94	36	0.000220999999	103
94	57	0.00104886	103
94	57	0.00104886	227
94	164	0.001277299998	227
94	164	0.001277299998	351
94	220	0.001504019996	351
94	220	0.001504019996	227
94	224	0.001587099996	227
94	224	0.001587099996	103
94	245	0.00604886	103
94	245	0.00604886	227
94	352	0.006277299998	227
94	352	0.006277299998	351
94	408	0.006504019996	351
94	408	0.006504019996	227
94	412	0.006587099996	227
94	412	0.006587099996	103
94	433	0.01104886	103
94	433	0.01104886	227
94	540	0.011277299998	227
94	540	0.011277299998	351
94	596	0.011504019996	351
94	596	0.011504019996	227
94	600	0.011587099996	227
94	600	0.011587099996	103
94	621	0.01604886	103
94	621	0.01604886	227
94	728	0.016277299998	227
94	728	0.016277299998	351
94	784	0.016504019996	351
94	784	0.016504019996	227
94	788	0.016587099996	227
94	788	0.016587099996	103
95	0	0	0
95	0	0	351
95	29	0.000001	351
95	29	0.000001	351
95	30	0.000001	351
95	30	0.000001	351
95	35	0.000220999999	351
95	35	0.000220999999	204.5
95	36	0.000220999999	204.5
95	36	0.000220999999	58
95	57	0.00104886	58
95	57	0.00104886	204.5
95	71	0.001055579999	204.5
95	71	0.001055579999	204.5
95	98	0.001132219997	204.5
95	98	0.001132219997	204.5
95	134	0.001194939997	204.5
95	134	0.001194939997	204.5
95	158	0.001249659997	204.5
95	158	0.001249659997	204.5
95	163	0.001256799998	204.5
95	163	0.001256799998	204.5
95	164	0.001277299998	204.5
95	164	0.001277299998	351
95	170	0.001284019997	351
95	170	0.001284019997	351
95	218	0.001367099997	351
95	218	0.001367099997	351
95	220	0.001504019996	351
95	220	0.001504019996	204.5
95	224	0.001587099996	204.5
95	224	0.001587099996	58
95	245	0.00604886	58
95	245	0.00604886	204.5
95	259	0.006055579999	204.5
95	259	0.006055579999	204.5
95	286	0.006132219997	204.5
95	286	0.006132219997	204.5
95	322	0.006194939997	204.5
95	322	0.006194939997	204.5
95	346	0.006249659997	204.5
95	346	0.006249659997	204.5
95	351	0.006256799998	204.5
95	351	0.006256799998	204.5
95	352	0.006277299998	204.5
95	352	0.006277299998	351
95	358	0.006284019997	351
95	358	0.006284019997	351
95	406	0.006367099997	351
95	406	0.006367099997	351
95	408	0.006504019996	351
95	408	0.006504019996	204.5
95	412	0.006587099996	204.5
95	412	0.006587099996	58
95	433	0.01104886	58
95	433	0.01104886	204.5
95	447	0.011055579999	204.5
95	447	0.011055579999	204.5
95	474	0.011132219997	204.5
95	474	0.011132219997	204.5
95	510	0.011194939997	204.5
95	510	0.011194939997	204.5
95	534	0.011249659997	204.5
95	534	0.011249659997	204.5
95	539	0.011256799998	204.5
95	539	0.011256799998	204.5
95	540	0.011277299998	204.5
95	540	0.011277299998	351
95	546	0.011284019997	351
95	546	0.011284019997	351
95	594	0.011367099997	351
95	594	0.011367099997	351
95	596	0.011504019996	351
95	596	0.011504019996	204.5
95	600	0.011587099996	204.5
95	600	0.011587099996	58
95	621	0.01604886	58
95	621	0.01604886	204.5
95	635	0.016055579999	204.5
95	635	0.016055579999	204.5
95	662	0.016132219997	204.5
95	662	0.016132219997	204.5
95	698	0.016194939997	204.5
95	698	0.016194939997	204.5
95	722	0.016249659997	204.5
95	722	0.016249659997	204.5
95	727	0.016256799998	204.5
95	727	0.016256799998	204.5
95	728	0.016277299998	204.5
95	728	0.016277299998	351
95	734	0.016284019997	351
95	734	0.016284019997	351
95	782	0.016367099997	351
95	782	0.016367099997	351
95	784	0.016504019996	351
95	784	0.016504019996	204.5
95	788	0.016587099996	204.5
95	788	0.016587099996	58
96	0	0	0
96	0	0	351
96	35	0.000220999999	351
96	35	0.000220999999	227
96	36	0.000220999999	227
96	36	0.000220999999	103
96	57	0.00104886	103
96	57	0.00104886	227
96	164	0.001277299998	227
96	164	0.001277299998	351
96	220	0.001504019996	351
96	220	0.001504019996	227
96	224	0.001587099996	227
96	224	0.001587099996	103
96	245	0.00604886	103
96	245	0.00604886	227
96	352	0.006277299998	227
96	352	0.006277299998	351
96	408	0.006504019996	351
96	408	0.006504019996	227
96	412	0.006587099996	227
96	412	0.006587099996	103
96	433	0.01104886	103
96	433	0.01104886	227
96	540	0.011277299998	227
96	540	0.011277299998	351
96	596	0.011504019996	351
96	596	0.011504019996	227
96	600	0.011587099996	227
96	600	0.011587099996	103
96	621	0.01604886	103
96	621	0.01604886	227
96	728	0.016277299998	227
96	728	0.016277299998	351
96	784	0.016504019996	351
96	784	0.016504019996	227
96	788	0.016587099996	227
96	788	0.016587099996	103