file 47332485 1393474399                                        
version 2
run eee1_100M-0-20140227-05:13:04-34229
attr configname eee1_100M
attr datetime 20140227-05:13:04
attr experiment eee1_100M
attr inifile EPL_etfa.ini
attr iterationvars ""
attr iterationvars2 $repetition=0
attr measurement ""
attr network eeepowerlink.networks.EPL_etfa
attr processid 34229
attr repetition 0
attr replication #0
attr resultdir results
attr runnumber 0
attr seedset 0

vector 1026  EPL_etfa.Host0.lpi_client  "EEE-Link Power"  ETV
vector 1027  EPL_etfa.Host0.lpi_client  "NoEEE-Link Power"  ETV
vector 1030  EPL_etfa.PLC.lpi_client  "EEE-Link Power"  ETV
vector 1028  EPL_etfa.PLC.MN  "EEE-Link Power"  ETV
vector 1031  EPL_etfa.PLC.lpi_client  "NoEEE-Link Power"  ETV
vector 1029  EPL_etfa.PLC.MN  "NoEEE-Link Power"  ETV
vector 1032  EPL_etfa.Host1.lpi_client  "EEE-Link Power"  ETV
vector 1033  EPL_etfa.Host1.lpi_client  "NoEEE-Link Power"  ETV
vector 1034  EPL_etfa.Subnet1_Host[0].lpi_client  "EEE-Link Power"  ETV
vector 1035  EPL_etfa.Subnet1_Host[0].lpi_client  "NoEEE-Link Power"  ETV
vector 1036  EPL_etfa.Subnet1_Host[1].lpi_client  "EEE-Link Power"  ETV
vector 1037  EPL_etfa.Subnet1_Host[1].lpi_client  "NoEEE-Link Power"  ETV
vector 1038  EPL_etfa.Subnet1_Host[2].lpi_client  "EEE-Link Power"  ETV
vector 1039  EPL_etfa.Subnet1_Host[2].lpi_client  "NoEEE-Link Power"  ETV
vector 1040  EPL_etfa.Subnet1_Host[3].lpi_client  "EEE-Link Power"  ETV
vector 1041  EPL_etfa.Subnet1_Host[3].lpi_client  "NoEEE-Link Power"  ETV
vector 1042  EPL_etfa.Subnet1_Host[4].lpi_client  "EEE-Link Power"  ETV
vector 1043  EPL_etfa.Subnet1_Host[4].lpi_client  "NoEEE-Link Power"  ETV
vector 1044  EPL_etfa.Subnet1_Host[5].lpi_client  "EEE-Link Power"  ETV
vector 1045  EPL_etfa.Subnet1_Host[5].lpi_client  "NoEEE-Link Power"  ETV
vector 1046  EPL_etfa.Subnet1_Host[6].lpi_client  "EEE-Link Power"  ETV
vector 1047  EPL_etfa.Subnet1_Host[6].lpi_client  "NoEEE-Link Power"  ETV
vector 1048  EPL_etfa.Subnet1_Host[7].lpi_client  "EEE-Link Power"  ETV
vector 1049  EPL_etfa.Subnet1_Host[7].lpi_client  "NoEEE-Link Power"  ETV
vector 1050  EPL_etfa.Subnet1_Host[8].lpi_client  "EEE-Link Power"  ETV
vector 1051  EPL_etfa.Subnet1_Host[8].lpi_client  "NoEEE-Link Power"  ETV
vector 1052  EPL_etfa.Subnet1_Host[9].lpi_client  "EEE-Link Power"  ETV
vector 1053  EPL_etfa.Subnet1_Host[9].lpi_client  "NoEEE-Link Power"  ETV
vector 1054  EPL_etfa.Subnet1_Host[10].lpi_client  "EEE-Link Power"  ETV
vector 1055  EPL_etfa.Subnet1_Host[10].lpi_client  "NoEEE-Link Power"  ETV
vector 1056  EPL_etfa.Subnet1_Host[11].lpi_client  "EEE-Link Power"  ETV
vector 1057  EPL_etfa.Subnet1_Host[11].lpi_client  "NoEEE-Link Power"  ETV
vector 1058  EPL_etfa.Subnet1_Host[12].lpi_client  "EEE-Link Power"  ETV
vector 1059  EPL_etfa.Subnet1_Host[12].lpi_client  "NoEEE-Link Power"  ETV
vector 1060  EPL_etfa.Subnet1_Host[13].lpi_client  "EEE-Link Power"  ETV
vector 1061  EPL_etfa.Subnet1_Host[13].lpi_client  "NoEEE-Link Power"  ETV
vector 1062  EPL_etfa.Subnet1_Host[14].lpi_client  "EEE-Link Power"  ETV
vector 1063  EPL_etfa.Subnet1_Host[14].lpi_client  "NoEEE-Link Power"  ETV
vector 1064  EPL_etfa.Subnet1_Host[15].lpi_client  "EEE-Link Power"  ETV
vector 1065  EPL_etfa.Subnet1_Host[15].lpi_client  "NoEEE-Link Power"  ETV
vector 1066  EPL_etfa.Subnet1_Host[16].lpi_client  "EEE-Link Power"  ETV
vector 1067  EPL_etfa.Subnet1_Host[16].lpi_client  "NoEEE-Link Power"  ETV
vector 1068  EPL_etfa.Subnet1_Host[17].lpi_client  "EEE-Link Power"  ETV
vector 1069  EPL_etfa.Subnet1_Host[17].lpi_client  "NoEEE-Link Power"  ETV
vector 1070  EPL_etfa.Subnet1_Host[18].lpi_client  "EEE-Link Power"  ETV
vector 1071  EPL_etfa.Subnet1_Host[18].lpi_client  "NoEEE-Link Power"  ETV
vector 1072  EPL_etfa.Subnet1_Host[19].lpi_client  "EEE-Link Power"  ETV
vector 1073  EPL_etfa.Subnet1_Host[19].lpi_client  "NoEEE-Link Power"  ETV
vector 1074  EPL_etfa.Subnet2_Host[0].lpi_client  "EEE-Link Power"  ETV
vector 1075  EPL_etfa.Subnet2_Host[0].lpi_client  "NoEEE-Link Power"  ETV
vector 1076  EPL_etfa.Subnet2_Host[1].lpi_client  "EEE-Link Power"  ETV
vector 1077  EPL_etfa.Subnet2_Host[1].lpi_client  "NoEEE-Link Power"  ETV
vector 1078  EPL_etfa.Subnet2_Host[2].lpi_client  "EEE-Link Power"  ETV
vector 1079  EPL_etfa.Subnet2_Host[2].lpi_client  "NoEEE-Link Power"  ETV
vector 1080  EPL_etfa.Subnet2_Host[3].lpi_client  "EEE-Link Power"  ETV
vector 1081  EPL_etfa.Subnet2_Host[3].lpi_client  "NoEEE-Link Power"  ETV
vector 1082  EPL_etfa.Subnet2_Host[4].lpi_client  "EEE-Link Power"  ETV
vector 1083  EPL_etfa.Subnet2_Host[4].lpi_client  "NoEEE-Link Power"  ETV
vector 1084  EPL_etfa.Subnet2_Host[5].lpi_client  "EEE-Link Power"  ETV
vector 1085  EPL_etfa.Subnet2_Host[5].lpi_client  "NoEEE-Link Power"  ETV
vector 1086  EPL_etfa.Subnet2_Host[6].lpi_client  "EEE-Link Power"  ETV
vector 1087  EPL_etfa.Subnet2_Host[6].lpi_client  "NoEEE-Link Power"  ETV
vector 1088  EPL_etfa.Subnet2_Host[7].lpi_client  "EEE-Link Power"  ETV
vector 1089  EPL_etfa.Subnet2_Host[7].lpi_client  "NoEEE-Link Power"  ETV
vector 1090  EPL_etfa.Subnet2_Host[8].lpi_client  "EEE-Link Power"  ETV
vector 1091  EPL_etfa.Subnet2_Host[8].lpi_client  "NoEEE-Link Power"  ETV
vector 1092  EPL_etfa.Subnet2_Host[9].lpi_client  "EEE-Link Power"  ETV
vector 1093  EPL_etfa.Subnet2_Host[9].lpi_client  "NoEEE-Link Power"  ETV
vector 1094  EPL_etfa.Subnet2_Host[10].lpi_client  "EEE-Link Power"  ETV
vector 1095  EPL_etfa.Subnet2_Host[10].lpi_client  "NoEEE-Link Power"  ETV
vector 1096  EPL_etfa.Subnet2_Host[11].lpi_client  "EEE-Link Power"  ETV
vector 1097  EPL_etfa.Subnet2_Host[11].lpi_client  "NoEEE-Link Power"  ETV
vector 1098  EPL_etfa.Subnet2_Host[12].lpi_client  "EEE-Link Power"  ETV
vector 1099  EPL_etfa.Subnet2_Host[12].lpi_client  "NoEEE-Link Power"  ETV
vector 1100  EPL_etfa.Subnet2_Host[13].lpi_client  "EEE-Link Power"  ETV
vector 1101  EPL_etfa.Subnet2_Host[13].lpi_client  "NoEEE-Link Power"  ETV
vector 1102  EPL_etfa.Subnet2_Host[14].lpi_client  "EEE-Link Power"  ETV
vector 1103  EPL_etfa.Subnet2_Host[14].lpi_client  "NoEEE-Link Power"  ETV
vector 1104  EPL_etfa.Subnet2_Host[15].lpi_client  "EEE-Link Power"  ETV
vector 1105  EPL_etfa.Subnet2_Host[15].lpi_client  "NoEEE-Link Power"  ETV
vector 1106  EPL_etfa.Subnet2_Host[16].lpi_client  "EEE-Link Power"  ETV
vector 1107  EPL_etfa.Subnet2_Host[16].lpi_client  "NoEEE-Link Power"  ETV
vector 1108  EPL_etfa.Subnet2_Host[17].lpi_client  "EEE-Link Power"  ETV
vector 1109  EPL_etfa.Subnet2_Host[17].lpi_client  "NoEEE-Link Power"  ETV
vector 1110  EPL_etfa.Subnet2_Host[18].lpi_client  "EEE-Link Power"  ETV
vector 1111  EPL_etfa.Subnet2_Host[18].lpi_client  "NoEEE-Link Power"  ETV
vector 1112  EPL_etfa.Subnet2_Host[19].lpi_client  "EEE-Link Power"  ETV
vector 1113  EPL_etfa.Subnet2_Host[19].lpi_client  "NoEEE-Link Power"  ETV
vector 1114  EPL_etfa.Subnet3_Host[0].lpi_client  "EEE-Link Power"  ETV
vector 1115  EPL_etfa.Subnet3_Host[0].lpi_client  "NoEEE-Link Power"  ETV
vector 1116  EPL_etfa.Subnet3_Host[1].lpi_client  "EEE-Link Power"  ETV
vector 1117  EPL_etfa.Subnet3_Host[1].lpi_client  "NoEEE-Link Power"  ETV
vector 1118  EPL_etfa.Subnet3_Host[2].lpi_client  "EEE-Link Power"  ETV
vector 1119  EPL_etfa.Subnet3_Host[2].lpi_client  "NoEEE-Link Power"  ETV
vector 1120  EPL_etfa.Subnet3_Host[3].lpi_client  "EEE-Link Power"  ETV
vector 1121  EPL_etfa.Subnet3_Host[3].lpi_client  "NoEEE-Link Power"  ETV
vector 1122  EPL_etfa.Subnet3_Host[4].lpi_client  "EEE-Link Power"  ETV
vector 1123  EPL_etfa.Subnet3_Host[4].lpi_client  "NoEEE-Link Power"  ETV
vector 1124  EPL_etfa.Subnet3_Host[5].lpi_client  "EEE-Link Power"  ETV
vector 1125  EPL_etfa.Subnet3_Host[5].lpi_client  "NoEEE-Link Power"  ETV
vector 1126  EPL_etfa.Subnet3_Host[6].lpi_client  "EEE-Link Power"  ETV
vector 1127  EPL_etfa.Subnet3_Host[6].lpi_client  "NoEEE-Link Power"  ETV
vector 1128  EPL_etfa.Subnet3_Host[7].lpi_client  "EEE-Link Power"  ETV
vector 1129  EPL_etfa.Subnet3_Host[7].lpi_client  "NoEEE-Link Power"  ETV
vector 1130  EPL_etfa.Subnet3_Host[8].lpi_client  "EEE-Link Power"  ETV
vector 1131  EPL_etfa.Subnet3_Host[8].lpi_client  "NoEEE-Link Power"  ETV
vector 1132  EPL_etfa.Subnet3_Host[9].lpi_client  "EEE-Link Power"  ETV
vector 1133  EPL_etfa.Subnet3_Host[9].lpi_client  "NoEEE-Link Power"  ETV
vector 1134  EPL_etfa.Subnet3_Host[10].lpi_client  "EEE-Link Power"  ETV
vector 1135  EPL_etfa.Subnet3_Host[10].lpi_client  "NoEEE-Link Power"  ETV
vector 1136  EPL_etfa.Subnet3_Host[11].lpi_client  "EEE-Link Power"  ETV
vector 1137  EPL_etfa.Subnet3_Host[11].lpi_client  "NoEEE-Link Power"  ETV
vector 1138  EPL_etfa.Subnet3_Host[12].lpi_client  "EEE-Link Power"  ETV
vector 1139  EPL_etfa.Subnet3_Host[12].lpi_client  "NoEEE-Link Power"  ETV
vector 1140  EPL_etfa.Subnet3_Host[13].lpi_client  "EEE-Link Power"  ETV
vector 1141  EPL_etfa.Subnet3_Host[13].lpi_client  "NoEEE-Link Power"  ETV
vector 1142  EPL_etfa.Subnet3_Host[14].lpi_client  "EEE-Link Power"  ETV
vector 1143  EPL_etfa.Subnet3_Host[14].lpi_client  "NoEEE-Link Power"  ETV
vector 1144  EPL_etfa.Subnet3_Host[15].lpi_client  "EEE-Link Power"  ETV
vector 1145  EPL_etfa.Subnet3_Host[15].lpi_client  "NoEEE-Link Power"  ETV
vector 1146  EPL_etfa.Subnet3_Host[16].lpi_client  "EEE-Link Power"  ETV
vector 1147  EPL_etfa.Subnet3_Host[16].lpi_client  "NoEEE-Link Power"  ETV
vector 1148  EPL_etfa.Subnet3_Host[17].lpi_client  "EEE-Link Power"  ETV
vector 1149  EPL_etfa.Subnet3_Host[17].lpi_client  "NoEEE-Link Power"  ETV
vector 1150  EPL_etfa.Subnet3_Host[18].lpi_client  "EEE-Link Power"  ETV
vector 1151  EPL_etfa.Subnet3_Host[18].lpi_client  "NoEEE-Link Power"  ETV
vector 1152  EPL_etfa.Subnet3_Host[19].lpi_client  "EEE-Link Power"  ETV
vector 1153  EPL_etfa.Subnet3_Host[19].lpi_client  "NoEEE-Link Power"  ETV
vector 1014  EPL_etfa.switch0  "EEE-Link Power"  ETV
vector 1015  EPL_etfa.switch0  "NoEEE-Link Power"  ETV
vector 1016  EPL_etfa.switch1  "EEE-Link Power"  ETV
vector 1017  EPL_etfa.switch1  "NoEEE-Link Power"  ETV
vector 1018  EPL_etfa.switch2  "EEE-Link Power"  ETV
vector 1019  EPL_etfa.switch2  "NoEEE-Link Power"  ETV
vector 1020  EPL_etfa.switch3  "EEE-Link Power"  ETV
vector 1021  EPL_etfa.switch3  "NoEEE-Link Power"  ETV
vector 1022  EPL_etfa.switch4  "EEE-Link Power"  ETV
vector 1023  EPL_etfa.switch4  "NoEEE-Link Power"  ETV
vector 1024  EPL_etfa.switch5  "EEE-Link Power"  ETV
vector 1025  EPL_etfa.switch5  "NoEEE-Link Power"  ETV
vector 36  EPL_etfa.PLC.lpi_client  linkLPI_time:vector  ETV
attr source  lpi_time
vector 24  EPL_etfa.PLC.llc  encapPk:vector(packetBytes)  ETV
attr interpolationmode  none
attr source  encapPk
attr title  "packets encapsulated, vector(packetBytes)"
vector 32  EPL_etfa.PLC.mac  rxPkFromHL:vector(packetBytes)  ETV
attr interpolationmode  none
attr source  rxPkFromHL
attr title  "packet bytes from higher layer, vector(packetBytes)"
vector 0  EPL_etfa.switch0  pk:vector(packetBytes)  ETV
attr interpolationmode  none
attr source  pk
attr title  "packets, vector(packetBytes)"
vector 27  EPL_etfa.PLC.mac  txPk:vector(packetBytes)  ETV
attr interpolationmode  none
attr source  txPk
attr title  "packets transmitted, vector(packetBytes)"
vector 1  EPL_etfa.switch1  pk:vector(packetBytes)  ETV
attr interpolationmode  none
attr source  pk
attr title  "packets, vector(packetBytes)"
vector 2  EPL_etfa.switch2  pk:vector(packetBytes)  ETV
attr interpolationmode  none
attr source  pk
attr title  "packets, vector(packetBytes)"
vector 4  EPL_etfa.switch4  pk:vector(packetBytes)  ETV
attr interpolationmode  none
attr source  pk
attr title  "packets, vector(packetBytes)"
vector 12  EPL_etfa.Host0.mac  rxPkOk:vector(packetBytes)  ETV
attr interpolationmode  none
attr source  rxPkOk
attr title  "packets received OK, vector(packetBytes)"
vector 13  EPL_etfa.Host0.mac  passedUpPk:vector(packetBytes)  ETV
attr interpolationmode  none
attr source  packetSentToUpper
attr title  "packets passed to higher layer, vector(packetBytes)"
vector 3  EPL_etfa.switch3  pk:vector(packetBytes)  ETV
attr interpolationmode  none
attr source  pk
attr title  "packets, vector(packetBytes)"
vector 44  EPL_etfa.Host1.mac  rxPkOk:vector(packetBytes)  ETV
attr interpolationmode  none
attr source  rxPkOk
attr title  "packets received OK, vector(packetBytes)"
vector 45  EPL_etfa.Host1.mac  passedUpPk:vector(packetBytes)  ETV
attr interpolationmode  none
attr source  packetSentToUpper
attr title  "packets passed to higher layer, vector(packetBytes)"
vector 5  EPL_etfa.switch5  pk:vector(packetBytes)  ETV
attr interpolationmode  none
attr source  pk
attr title  "packets, vector(packetBytes)"
vector 380  EPL_etfa.Subnet2_Host[0].mac  rxPkOk:vector(packetBytes)  ETV
attr interpolationmode  none
attr source  rxPkOk
attr title  "packets received OK, vector(packetBytes)"
vector 381  EPL_etfa.Subnet2_Host[0].mac  passedUpPk:vector(packetBytes)  ETV
attr interpolationmode  none
attr source  packetSentToUpper
attr title  "packets passed to higher layer, vector(packetBytes)"
vector 396  EPL_etfa.Subnet2_Host[1].mac  rxPkOk:vector(packetBytes)  ETV
attr interpolationmode  none
attr source  rxPkOk
attr title  "packets received OK, vector(packetBytes)"
vector 397  EPL_etfa.Subnet2_Host[1].mac  passedUpPk:vector(packetBytes)  ETV
attr interpolationmode  none
attr source  packetSentToUpper
attr title  "packets passed to higher layer, vector(packetBytes)"
vector 412  EPL_etfa.Subnet2_Host[2].mac  rxPkOk:vector(packetBytes)  ETV
attr interpolationmode  none
attr source  rxPkOk
attr title  "packets received OK, vector(packetBytes)"
vector 413  EPL_etfa.Subnet2_Host[2].mac  passedUpPk:vector(packetBytes)  ETV
attr interpolationmode  none
attr source  packetSentToUpper
attr title  "packets passed to higher layer, vector(packetBytes)"
vector 428  EPL_etfa.Subnet2_Host[3].mac  rxPkOk:vector(packetBytes)  ETV
attr interpolationmode  none
attr source  rxPkOk
attr title  "packets received OK, vector(packetBytes)"
vector 429  EPL_etfa.Subnet2_Host[3].mac  passedUpPk:vector(packetBytes)  ETV
attr interpolationmode  none
attr source  packetSentToUpper
attr title  "packets passed to higher layer, vector(packetBytes)"
vector 444  EPL_etfa.Subnet2_Host[4].mac  rxPkOk:vector(packetBytes)  ETV
attr interpolationmode  none
attr source  rxPkOk
attr title  "packets received OK, vector(packetBytes)"
vector 445  EPL_etfa.Subnet2_Host[4].mac  passedUpPk:vector(packetBytes)  ETV
attr interpolationmode  none
attr source  packetSentToUpper
attr title  "packets passed to higher layer, vector(packetBytes)"
vector 460  EPL_etfa.Subnet2_Host[5].mac  rxPkOk:vector(packetBytes)  ETV
attr interpolationmode  none
attr source  rxPkOk
attr title  "packets received OK, vector(packetBytes)"
vector 461  EPL_etfa.Subnet2_Host[5].mac  passedUpPk:vector(packetBytes)  ETV
attr interpolationmode  none
attr source  packetSentToUpper
attr title  "packets passed to higher layer, vector(packetBytes)"
vector 476  EPL_etfa.Subnet2_Host[6].mac  rxPkOk:vector(packetBytes)  ETV
attr interpolationmode  none
attr source  rxPkOk
attr title  "packets received OK, vector(packetBytes)"
vector 477  EPL_etfa.Subnet2_Host[6].mac  passedUpPk:vector(packetBytes)  ETV
attr interpolationmode  none
attr source  packetSentToUpper
attr title  "packets passed to higher layer, vector(packetBytes)"
vector 492  EPL_etfa.Subnet2_Host[7].mac  rxPkOk:vector(packetBytes)  ETV
attr interpolationmode  none
attr source  rxPkOk
attr title  "packets received OK, vector(packetBytes)"
vector 493  EPL_etfa.Subnet2_Host[7].mac  passedUpPk:vector(packetBytes)  ETV
attr interpolationmode  none
attr source  packetSentToUpper
attr title  "packets passed to higher layer, vector(packetBytes)"
vector 508  EPL_etfa.Subnet2_Host[8].mac  rxPkOk:vector(packetBytes)  ETV
attr interpolationmode  none
attr source  rxPkOk
attr title  "packets received OK, vector(packetBytes)"
vector 509  EPL_etfa.Subnet2_Host[8].mac  passedUpPk:vector(packetBytes)  ETV
attr interpolationmode  none
attr source  packetSentToUpper
attr title  "packets passed to higher layer, vector(packetBytes)"
vector 524  EPL_etfa.Subnet2_Host[9].mac  rxPkOk:vector(packetBytes)  ETV
attr interpolationmode  none
attr source  rxPkOk
attr title  "packets received OK, vector(packetBytes)"
vector 525  EPL_etfa.Subnet2_Host[9].mac  passedUpPk:vector(packetBytes)  ETV
attr interpolationmode  none
attr source  packetSentToUpper
attr title  "packets passed to higher layer, vector(packetBytes)"
vector 540  EPL_etfa.Subnet2_Host[10].mac  rxPkOk:vector(packetBytes)  ETV
attr interpolationmode  none
attr source  rxPkOk
attr title  "packets received OK, vector(packetBytes)"
vector 541  EPL_etfa.Subnet2_Host[10].mac  passedUpPk:vector(packetBytes)  ETV
attr interpolationmode  none
attr source  packetSentToUpper
attr title  "packets passed to higher layer, vector(packetBytes)"
vector 556  EPL_etfa.Subnet2_Host[11].mac  rxPkOk:vector(packetBytes)  ETV
attr interpolationmode  none
attr source  rxPkOk
attr title  "packets received OK, vector(packetBytes)"
vector 557  EPL_etfa.Subnet2_Host[11].mac  passedUpPk:vector(packetBytes)  ETV
attr interpolationmode  none
attr source  packetSentToUpper
attr title  "packets passed to higher layer, vector(packetBytes)"
vector 572  EPL_etfa.Subnet2_Host[12].mac  rxPkOk:vector(packetBytes)  ETV
attr interpolationmode  none
attr source  rxPkOk
attr title  "packets received OK, vector(packetBytes)"
vector 573  EPL_etfa.Subnet2_Host[12].mac  passedUpPk:vector(packetBytes)  ETV
attr interpolationmode  none
attr source  packetSentToUpper
attr title  "packets passed to higher layer, vector(packetBytes)"
vector 588  EPL_etfa.Subnet2_Host[13].mac  rxPkOk:vector(packetBytes)  ETV
attr interpolationmode  none
attr source  rxPkOk
attr title  "packets received OK, vector(packetBytes)"
vector 589  EPL_etfa.Subnet2_Host[13].mac  passedUpPk:vector(packetBytes)  ETV
attr interpolationmode  none
attr source  packetSentToUpper
attr title  "packets passed to higher layer, vector(packetBytes)"
vector 604  EPL_etfa.Subnet2_Host[14].mac  rxPkOk:vector(packetBytes)  ETV
attr interpolationmode  none
attr source  rxPkOk
attr title  "packets received OK, vector(packetBytes)"
vector 605  EPL_etfa.Subnet2_Host[14].mac  passedUpPk:vector(packetBytes)  ETV
attr interpolationmode  none
attr source  packetSentToUpper
attr title  "packets passed to higher layer, vector(packetBytes)"
vector 620  EPL_etfa.Subnet2_Host[15].mac  rxPkOk:vector(packetBytes)  ETV
attr interpolationmode  none
attr source  rxPkOk
attr title  "packets received OK, vector(packetBytes)"
vector 621  EPL_etfa.Subnet2_Host[15].mac  passedUpPk:vector(packetBytes)  ETV
attr interpolationmode  none
attr source  packetSentToUpper
attr title  "packets passed to higher layer, vector(packetBytes)"
vector 636  EPL_etfa.Subnet2_Host[16].mac  rxPkOk:vector(packetBytes)  ETV
attr interpolationmode  none
attr source  rxPkOk
attr title  "packets received OK, vector(packetBytes)"
vector 637  EPL_etfa.Subnet2_Host[16].mac  passedUpPk:vector(packetBytes)  ETV
attr interpolationmode  none
attr source  packetSentToUpper
attr title  "packets passed to higher layer, vector(packetBytes)"
vector 652  EPL_etfa.Subnet2_Host[17].mac  rxPkOk:vector(packetBytes)  ETV
attr interpolationmode  none
attr source  rxPkOk
attr title  "packets received OK, vector(packetBytes)"
vector 653  EPL_etfa.Subnet2_Host[17].mac  passedUpPk:vector(packetBytes)  ETV
attr interpolationmode  none
attr source  packetSentToUpper
attr title  "packets passed to higher layer, vector(packetBytes)"
vector 668  EPL_etfa.Subnet2_Host[18].mac  rxPkOk:vector(packetBytes)  ETV
attr interpolationmode  none
attr source  rxPkOk
attr title  "packets received OK, vector(packetBytes)"
vector 669  EPL_etfa.Subnet2_Host[18].mac  passedUpPk:vector(packetBytes)  ETV
attr interpolationmode  none
attr source  packetSentToUpper
attr title  "packets passed to higher layer, vector(packetBytes)"
vector 684  EPL_etfa.Subnet2_Host[19].mac  rxPkOk:vector(packetBytes)  ETV
attr interpolationmode  none
attr source  rxPkOk
attr title  "packets received OK, vector(packetBytes)"
vector 685  EPL_etfa.Subnet2_Host[19].mac  passedUpPk:vector(packetBytes)  ETV
attr interpolationmode  none
attr source  packetSentToUpper
attr title  "packets passed to higher layer, vector(packetBytes)"
vector 9  EPL_etfa.Host0.llc  decapPk:vector(packetBytes)  ETV
attr interpolationmode  none
attr source  decapPk
attr title  "packets decapsulated, vector(packetBytes)"
vector 41  EPL_etfa.Host1.llc  decapPk:vector(packetBytes)  ETV
attr interpolationmode  none
attr source  decapPk
attr title  "packets decapsulated, vector(packetBytes)"
vector 377  EPL_etfa.Subnet2_Host[0].llc  decapPk:vector(packetBytes)  ETV
attr interpolationmode  none
attr source  decapPk
attr title  "packets decapsulated, vector(packetBytes)"
vector 393  EPL_etfa.Subnet2_Host[1].llc  decapPk:vector(packetBytes)  ETV
attr interpolationmode  none
attr source  decapPk
attr title  "packets decapsulated, vector(packetBytes)"
vector 409  EPL_etfa.Subnet2_Host[2].llc  decapPk:vector(packetBytes)  ETV
attr interpolationmode  none
attr source  decapPk
attr title  "packets decapsulated, vector(packetBytes)"
vector 425  EPL_etfa.Subnet2_Host[3].llc  decapPk:vector(packetBytes)  ETV
attr interpolationmode  none
attr source  decapPk
attr title  "packets decapsulated, vector(packetBytes)"
vector 441  EPL_etfa.Subnet2_Host[4].llc  decapPk:vector(packetBytes)  ETV
attr interpolationmode  none
attr source  decapPk
attr title  "packets decapsulated, vector(packetBytes)"
vector 457  EPL_etfa.Subnet2_Host[5].llc  decapPk:vector(packetBytes)  ETV
attr interpolationmode  none
attr source  decapPk
attr title  "packets decapsulated, vector(packetBytes)"
vector 473  EPL_etfa.Subnet2_Host[6].llc  decapPk:vector(packetBytes)  ETV
attr interpolationmode  none
attr source  decapPk
attr title  "packets decapsulated, vector(packetBytes)"
vector 489  EPL_etfa.Subnet2_Host[7].llc  decapPk:vector(packetBytes)  ETV
attr interpolationmode  none
attr source  decapPk
attr title  "packets decapsulated, vector(packetBytes)"
vector 505  EPL_etfa.Subnet2_Host[8].llc  decapPk:vector(packetBytes)  ETV
attr interpolationmode  none
attr source  decapPk
attr title  "packets decapsulated, vector(packetBytes)"
vector 521  EPL_etfa.Subnet2_Host[9].llc  decapPk:vector(packetBytes)  ETV
attr interpolationmode  none
attr source  decapPk
attr title  "packets decapsulated, vector(packetBytes)"
vector 537  EPL_etfa.Subnet2_Host[10].llc  decapPk:vector(packetBytes)  ETV
attr interpolationmode  none
attr source  decapPk
attr title  "packets decapsulated, vector(packetBytes)"
vector 553  EPL_etfa.Subnet2_Host[11].llc  decapPk:vector(packetBytes)  ETV
attr interpolationmode  none
attr source  decapPk
attr title  "packets decapsulated, vector(packetBytes)"
vector 569  EPL_etfa.Subnet2_Host[12].llc  decapPk:vector(packetBytes)  ETV
attr interpolationmode  none
attr source  decapPk
attr title  "packets decapsulated, vector(packetBytes)"
vector 585  EPL_etfa.Subnet2_Host[13].llc  decapPk:vector(packetBytes)  ETV
attr interpolationmode  none
attr source  decapPk
attr title  "packets decapsulated, vector(packetBytes)"
vector 601  EPL_etfa.Subnet2_Host[14].llc  decapPk:vector(packetBytes)  ETV
attr interpolationmode  none
attr source  decapPk
attr title  "packets decapsulated, vector(packetBytes)"
vector 617  EPL_etfa.Subnet2_Host[15].llc  decapPk:vector(packetBytes)  ETV
attr interpolationmode  none
attr source  decapPk
attr title  "packets decapsulated, vector(packetBytes)"
vector 633  EPL_etfa.Subnet2_Host[16].llc  decapPk:vector(packetBytes)  ETV
attr interpolationmode  none
attr source  decapPk
attr title  "packets decapsulated, vector(packetBytes)"
vector 649  EPL_etfa.Subnet2_Host[17].llc  decapPk:vector(packetBytes)  ETV
attr interpolationmode  none
attr source  decapPk
attr title  "packets decapsulated, vector(packetBytes)"
vector 665  EPL_etfa.Subnet2_Host[18].llc  decapPk:vector(packetBytes)  ETV
attr interpolationmode  none
attr source  decapPk
attr title  "packets decapsulated, vector(packetBytes)"
vector 681  EPL_etfa.Subnet2_Host[19].llc  decapPk:vector(packetBytes)  ETV
attr interpolationmode  none
attr source  decapPk
attr title  "packets decapsulated, vector(packetBytes)"
vector 20  EPL_etfa.Host0.lpi_client  linkLPI_time:vector  ETV
attr source  lpi_time
vector 52  EPL_etfa.Host1.lpi_client  linkLPI_time:vector  ETV
attr source  lpi_time
vector 388  EPL_etfa.Subnet2_Host[0].lpi_client  linkLPI_time:vector  ETV
attr source  lpi_time
vector 404  EPL_etfa.Subnet2_Host[1].lpi_client  linkLPI_time:vector  ETV
attr source  lpi_time
vector 420  EPL_etfa.Subnet2_Host[2].lpi_client  linkLPI_time:vector  ETV
attr source  lpi_time
vector 436  EPL_etfa.Subnet2_Host[3].lpi_client  linkLPI_time:vector  ETV
attr source  lpi_time
vector 452  EPL_etfa.Subnet2_Host[4].lpi_client  linkLPI_time:vector  ETV
attr source  lpi_time
vector 468  EPL_etfa.Subnet2_Host[5].lpi_client  linkLPI_time:vector  ETV
attr source  lpi_time
vector 484  EPL_etfa.Subnet2_Host[6].lpi_client  linkLPI_time:vector  ETV
attr source  lpi_time
vector 500  EPL_etfa.Subnet2_Host[7].lpi_client  linkLPI_time:vector  ETV
attr source  lpi_time
vector 516  EPL_etfa.Subnet2_Host[8].lpi_client  linkLPI_time:vector  ETV
attr source  lpi_time
vector 532  EPL_etfa.Subnet2_Host[9].lpi_client  linkLPI_time:vector  ETV
attr source  lpi_time
vector 548  EPL_etfa.Subnet2_Host[10].lpi_client  linkLPI_time:vector  ETV
attr source  lpi_time
vector 564  EPL_etfa.Subnet2_Host[11].lpi_client  linkLPI_time:vector  ETV
attr source  lpi_time
vector 580  EPL_etfa.Subnet2_Host[12].lpi_client  linkLPI_time:vector  ETV
attr source  lpi_time
vector 596  EPL_etfa.Subnet2_Host[13].lpi_client  linkLPI_time:vector  ETV
attr source  lpi_time
vector 612  EPL_etfa.Subnet2_Host[14].lpi_client  linkLPI_time:vector  ETV
attr source  lpi_time
vector 628  EPL_etfa.Subnet2_Host[15].lpi_client  linkLPI_time:vector  ETV
attr source  lpi_time
vector 644  EPL_etfa.Subnet2_Host[16].lpi_client  linkLPI_time:vector  ETV
attr source  lpi_time
vector 660  EPL_etfa.Subnet2_Host[17].lpi_client  linkLPI_time:vector  ETV
attr source  lpi_time
vector 676  EPL_etfa.Subnet2_Host[18].lpi_client  linkLPI_time:vector  ETV
attr source  lpi_time
vector 692  EPL_etfa.Subnet2_Host[19].lpi_client  linkLPI_time:vector  ETV
attr source  lpi_time
vector 60  EPL_etfa.Subnet1_Host[0].mac  rxPkOk:vector(packetBytes)  ETV
attr interpolationmode  none
attr source  rxPkOk
attr title  "packets received OK, vector(packetBytes)"
vector 61  EPL_etfa.Subnet1_Host[0].mac  passedUpPk:vector(packetBytes)  ETV
attr interpolationmode  none
attr source  packetSentToUpper
attr title  "packets passed to higher layer, vector(packetBytes)"
vector 76  EPL_etfa.Subnet1_Host[1].mac  rxPkOk:vector(packetBytes)  ETV
attr interpolationmode  none
attr source  rxPkOk
attr title  "packets received OK, vector(packetBytes)"
vector 77  EPL_etfa.Subnet1_Host[1].mac  passedUpPk:vector(packetBytes)  ETV
attr interpolationmode  none
attr source  packetSentToUpper
attr title  "packets passed to higher layer, vector(packetBytes)"
vector 92  EPL_etfa.Subnet1_Host[2].mac  rxPkOk:vector(packetBytes)  ETV
attr interpolationmode  none
attr source  rxPkOk
attr title  "packets received OK, vector(packetBytes)"
vector 93  EPL_etfa.Subnet1_Host[2].mac  passedUpPk:vector(packetBytes)  ETV
attr interpolationmode  none
attr source  packetSentToUpper
attr title  "packets passed to higher layer, vector(packetBytes)"
vector 108  EPL_etfa.Subnet1_Host[3].mac  rxPkOk:vector(packetBytes)  ETV
attr interpolationmode  none
attr source  rxPkOk
attr title  "packets received OK, vector(packetBytes)"
vector 109  EPL_etfa.Subnet1_Host[3].mac  passedUpPk:vector(packetBytes)  ETV
attr interpolationmode  none
attr source  packetSentToUpper
attr title  "packets passed to higher layer, vector(packetBytes)"
vector 124  EPL_etfa.Subnet1_Host[4].mac  rxPkOk:vector(packetBytes)  ETV
attr interpolationmode  none
attr source  rxPkOk
attr title  "packets received OK, vector(packetBytes)"
vector 125  EPL_etfa.Subnet1_Host[4].mac  passedUpPk:vector(packetBytes)  ETV
attr interpolationmode  none
attr source  packetSentToUpper
attr title  "packets passed to higher layer, vector(packetBytes)"
vector 140  EPL_etfa.Subnet1_Host[5].mac  rxPkOk:vector(packetBytes)  ETV
attr interpolationmode  none
attr source  rxPkOk
attr title  "packets received OK, vector(packetBytes)"
vector 141  EPL_etfa.Subnet1_Host[5].mac  passedUpPk:vector(packetBytes)  ETV
attr interpolationmode  none
attr source  packetSentToUpper
attr title  "packets passed to higher layer, vector(packetBytes)"
vector 156  EPL_etfa.Subnet1_Host[6].mac  rxPkOk:vector(packetBytes)  ETV
attr interpolationmode  none
attr source  rxPkOk
attr title  "packets received OK, vector(packetBytes)"
vector 157  EPL_etfa.Subnet1_Host[6].mac  passedUpPk:vector(packetBytes)  ETV
attr interpolationmode  none
attr source  packetSentToUpper
attr title  "packets passed to higher layer, vector(packetBytes)"
vector 172  EPL_etfa.Subnet1_Host[7].mac  rxPkOk:vector(packetBytes)  ETV
attr interpolationmode  none
attr source  rxPkOk
attr title  "packets received OK, vector(packetBytes)"
vector 173  EPL_etfa.Subnet1_Host[7].mac  passedUpPk:vector(packetBytes)  ETV
attr interpolationmode  none
attr source  packetSentToUpper
attr title  "packets passed to higher layer, vector(packetBytes)"
vector 188  EPL_etfa.Subnet1_Host[8].mac  rxPkOk:vector(packetBytes)  ETV
attr interpolationmode  none
attr source  rxPkOk
attr title  "packets received OK, vector(packetBytes)"
vector 189  EPL_etfa.Subnet1_Host[8].mac  passedUpPk:vector(packetBytes)  ETV
attr interpolationmode  none
attr source  packetSentToUpper
attr title  "packets passed to higher layer, vector(packetBytes)"
vector 204  EPL_etfa.Subnet1_Host[9].mac  rxPkOk:vector(packetBytes)  ETV
attr interpolationmode  none
attr source  rxPkOk
attr title  "packets received OK, vector(packetBytes)"