file 77344688 1395328869                                        
version 2
run eee2_100M_intel-0-20140320-16:20:59-76857
attr configname eee2_100M_intel
attr datetime 20140320-16:20:59
attr experiment eee2_100M_intel
attr inifile EPL_tii2014.ini
attr iterationvars ""
attr iterationvars2 $repetition=0
attr measurement ""
attr network eeepowerlink.networks.EPL_tii2014
attr processid 76857
attr repetition 0
attr replication #0
attr resultdir results
attr runnumber 0
attr seedset 0

vector 890  EPL_tii2014.PLC.lpi_client  "EEE-Link Power"  ETV
vector 891  EPL_tii2014.PLC.lpi_client  "NoEEE-Link Power"  ETV
vector 893  EPL_tii2014.switch0.eth[0].lpi_client  "EEE-Link Power"  ETV
vector 1025  EPL_tii2014.PLC.MN  "EEE-Link Power"  ETV
vector 894  EPL_tii2014.switch0.eth[0].lpi_client  "NoEEE-Link Power"  ETV
vector 1026  EPL_tii2014.PLC.MN  "NoEEE-Link Power"  ETV
vector 895  EPL_tii2014.switch0.eth[1].lpi_client  "EEE-Link Power"  ETV
vector 896  EPL_tii2014.switch0.eth[1].lpi_client  "NoEEE-Link Power"  ETV
vector 897  EPL_tii2014.switch0.eth[2].lpi_client  "EEE-Link Power"  ETV
vector 898  EPL_tii2014.switch0.eth[2].lpi_client  "NoEEE-Link Power"  ETV
vector 900  EPL_tii2014.switch1.eth[0].lpi_client  "EEE-Link Power"  ETV
vector 901  EPL_tii2014.switch1.eth[0].lpi_client  "NoEEE-Link Power"  ETV
vector 902  EPL_tii2014.switch1.eth[1].lpi_client  "EEE-Link Power"  ETV
vector 903  EPL_tii2014.switch1.eth[1].lpi_client  "NoEEE-Link Power"  ETV
vector 904  EPL_tii2014.switch1.eth[2].lpi_client  "EEE-Link Power"  ETV
vector 905  EPL_tii2014.switch1.eth[2].lpi_client  "NoEEE-Link Power"  ETV
vector 906  EPL_tii2014.switch1.eth[3].lpi_client  "EEE-Link Power"  ETV
vector 907  EPL_tii2014.switch1.eth[3].lpi_client  "NoEEE-Link Power"  ETV
vector 908  EPL_tii2014.switch1.eth[4].lpi_client  "EEE-Link Power"  ETV
vector 909  EPL_tii2014.switch1.eth[4].lpi_client  "NoEEE-Link Power"  ETV
vector 910  EPL_tii2014.switch1.eth[5].lpi_client  "EEE-Link Power"  ETV
vector 911  EPL_tii2014.switch1.eth[5].lpi_client  "NoEEE-Link Power"  ETV
vector 912  EPL_tii2014.switch1.eth[6].lpi_client  "EEE-Link Power"  ETV
vector 913  EPL_tii2014.switch1.eth[6].lpi_client  "NoEEE-Link Power"  ETV
vector 914  EPL_tii2014.switch1.eth[7].lpi_client  "EEE-Link Power"  ETV
vector 915  EPL_tii2014.switch1.eth[7].lpi_client  "NoEEE-Link Power"  ETV
vector 916  EPL_tii2014.switch1.eth[8].lpi_client  "EEE-Link Power"  ETV
vector 917  EPL_tii2014.switch1.eth[8].lpi_client  "NoEEE-Link Power"  ETV
vector 918  EPL_tii2014.switch1.eth[9].lpi_client  "EEE-Link Power"  ETV
vector 919  EPL_tii2014.switch1.eth[9].lpi_client  "NoEEE-Link Power"  ETV
vector 920  EPL_tii2014.switch1.eth[10].lpi_client  "EEE-Link Power"  ETV
vector 921  EPL_tii2014.switch1.eth[10].lpi_client  "NoEEE-Link Power"  ETV
vector 922  EPL_tii2014.switch1.eth[11].lpi_client  "EEE-Link Power"  ETV
vector 923  EPL_tii2014.switch1.eth[11].lpi_client  "NoEEE-Link Power"  ETV
vector 924  EPL_tii2014.switch1.eth[12].lpi_client  "EEE-Link Power"  ETV
vector 925  EPL_tii2014.switch1.eth[12].lpi_client  "NoEEE-Link Power"  ETV
vector 926  EPL_tii2014.switch1.eth[13].lpi_client  "EEE-Link Power"  ETV
vector 927  EPL_tii2014.switch1.eth[13].lpi_client  "NoEEE-Link Power"  ETV
vector 928  EPL_tii2014.switch1.eth[14].lpi_client  "EEE-Link Power"  ETV
vector 929  EPL_tii2014.switch1.eth[14].lpi_client  "NoEEE-Link Power"  ETV
vector 930  EPL_tii2014.switch1.eth[15].lpi_client  "EEE-Link Power"  ETV
vector 931  EPL_tii2014.switch1.eth[15].lpi_client  "NoEEE-Link Power"  ETV
vector 932  EPL_tii2014.switch1.eth[16].lpi_client  "EEE-Link Power"  ETV
vector 933  EPL_tii2014.switch1.eth[16].lpi_client  "NoEEE-Link Power"  ETV
vector 934  EPL_tii2014.switch1.eth[17].lpi_client  "EEE-Link Power"  ETV
vector 935  EPL_tii2014.switch1.eth[17].lpi_client  "NoEEE-Link Power"  ETV
vector 936  EPL_tii2014.switch1.eth[18].lpi_client  "EEE-Link Power"  ETV
vector 937  EPL_tii2014.switch1.eth[18].lpi_client  "NoEEE-Link Power"  ETV
vector 938  EPL_tii2014.switch1.eth[19].lpi_client  "EEE-Link Power"  ETV
vector 939  EPL_tii2014.switch1.eth[19].lpi_client  "NoEEE-Link Power"  ETV
vector 940  EPL_tii2014.switch1.eth[20].lpi_client  "EEE-Link Power"  ETV
vector 941  EPL_tii2014.switch1.eth[20].lpi_client  "NoEEE-Link Power"  ETV
vector 943  EPL_tii2014.switch2.eth[0].lpi_client  "EEE-Link Power"  ETV
vector 944  EPL_tii2014.switch2.eth[0].lpi_client  "NoEEE-Link Power"  ETV
vector 945  EPL_tii2014.switch2.eth[1].lpi_client  "EEE-Link Power"  ETV
vector 946  EPL_tii2014.switch2.eth[1].lpi_client  "NoEEE-Link Power"  ETV
vector 947  EPL_tii2014.switch2.eth[2].lpi_client  "EEE-Link Power"  ETV
vector 948  EPL_tii2014.switch2.eth[2].lpi_client  "NoEEE-Link Power"  ETV
vector 949  EPL_tii2014.switch2.eth[3].lpi_client  "EEE-Link Power"  ETV
vector 950  EPL_tii2014.switch2.eth[3].lpi_client  "NoEEE-Link Power"  ETV
vector 951  EPL_tii2014.switch2.eth[4].lpi_client  "EEE-Link Power"  ETV
vector 952  EPL_tii2014.switch2.eth[4].lpi_client  "NoEEE-Link Power"  ETV
vector 953  EPL_tii2014.switch2.eth[5].lpi_client  "EEE-Link Power"  ETV
vector 954  EPL_tii2014.switch2.eth[5].lpi_client  "NoEEE-Link Power"  ETV
vector 955  EPL_tii2014.switch2.eth[6].lpi_client  "EEE-Link Power"  ETV
vector 956  EPL_tii2014.switch2.eth[6].lpi_client  "NoEEE-Link Power"  ETV
vector 957  EPL_tii2014.switch2.eth[7].lpi_client  "EEE-Link Power"  ETV
vector 958  EPL_tii2014.switch2.eth[7].lpi_client  "NoEEE-Link Power"  ETV
vector 959  EPL_tii2014.switch2.eth[8].lpi_client  "EEE-Link Power"  ETV
vector 960  EPL_tii2014.switch2.eth[8].lpi_client  "NoEEE-Link Power"  ETV
vector 961  EPL_tii2014.switch2.eth[9].lpi_client  "EEE-Link Power"  ETV
vector 962  EPL_tii2014.switch2.eth[9].lpi_client  "NoEEE-Link Power"  ETV
vector 963  EPL_tii2014.switch2.eth[10].lpi_client  "EEE-Link Power"  ETV
vector 964  EPL_tii2014.switch2.eth[10].lpi_client  "NoEEE-Link Power"  ETV
vector 965  EPL_tii2014.Subnet1_Host[0].lpi_client  "EEE-Link Power"  ETV
vector 966  EPL_tii2014.Subnet1_Host[0].lpi_client  "NoEEE-Link Power"  ETV
vector 967  EPL_tii2014.Subnet1_Host[1].lpi_client  "EEE-Link Power"  ETV
vector 968  EPL_tii2014.Subnet1_Host[1].lpi_client  "NoEEE-Link Power"  ETV
vector 969  EPL_tii2014.Subnet1_Host[2].lpi_client  "EEE-Link Power"  ETV
vector 970  EPL_tii2014.Subnet1_Host[2].lpi_client  "NoEEE-Link Power"  ETV
vector 971  EPL_tii2014.Subnet1_Host[3].lpi_client  "EEE-Link Power"  ETV
vector 972  EPL_tii2014.Subnet1_Host[3].lpi_client  "NoEEE-Link Power"  ETV
vector 973  EPL_tii2014.Subnet1_Host[4].lpi_client  "EEE-Link Power"  ETV
vector 974  EPL_tii2014.Subnet1_Host[4].lpi_client  "NoEEE-Link Power"  ETV
vector 975  EPL_tii2014.Subnet1_Host[5].lpi_client  "EEE-Link Power"  ETV
vector 976  EPL_tii2014.Subnet1_Host[5].lpi_client  "NoEEE-Link Power"  ETV
vector 977  EPL_tii2014.Subnet1_Host[6].lpi_client  "EEE-Link Power"  ETV
vector 978  EPL_tii2014.Subnet1_Host[6].lpi_client  "NoEEE-Link Power"  ETV
vector 979  EPL_tii2014.Subnet1_Host[7].lpi_client  "EEE-Link Power"  ETV
vector 980  EPL_tii2014.Subnet1_Host[7].lpi_client  "NoEEE-Link Power"  ETV
vector 981  EPL_tii2014.Subnet1_Host[8].lpi_client  "EEE-Link Power"  ETV
vector 982  EPL_tii2014.Subnet1_Host[8].lpi_client  "NoEEE-Link Power"  ETV
vector 983  EPL_tii2014.Subnet1_Host[9].lpi_client  "EEE-Link Power"  ETV
vector 984  EPL_tii2014.Subnet1_Host[9].lpi_client  "NoEEE-Link Power"  ETV
vector 985  EPL_tii2014.Subnet1_Host[10].lpi_client  "EEE-Link Power"  ETV
vector 986  EPL_tii2014.Subnet1_Host[10].lpi_client  "NoEEE-Link Power"  ETV
vector 987  EPL_tii2014.Subnet1_Host[11].lpi_client  "EEE-Link Power"  ETV
vector 988  EPL_tii2014.Subnet1_Host[11].lpi_client  "NoEEE-Link Power"  ETV
vector 989  EPL_tii2014.Subnet1_Host[12].lpi_client  "EEE-Link Power"  ETV
vector 990  EPL_tii2014.Subnet1_Host[12].lpi_client  "NoEEE-Link Power"  ETV
vector 991  EPL_tii2014.Subnet1_Host[13].lpi_client  "EEE-Link Power"  ETV
vector 992  EPL_tii2014.Subnet1_Host[13].lpi_client  "NoEEE-Link Power"  ETV
vector 993  EPL_tii2014.Subnet1_Host[14].lpi_client  "EEE-Link Power"  ETV
vector 994  EPL_tii2014.Subnet1_Host[14].lpi_client  "NoEEE-Link Power"  ETV
vector 995  EPL_tii2014.Subnet1_Host[15].lpi_client  "EEE-Link Power"  ETV
vector 996  EPL_tii2014.Subnet1_Host[15].lpi_client  "NoEEE-Link Power"  ETV
vector 997  EPL_tii2014.Subnet1_Host[16].lpi_client  "EEE-Link Power"  ETV
vector 998  EPL_tii2014.Subnet1_Host[16].lpi_client  "NoEEE-Link Power"  ETV
vector 999  EPL_tii2014.Subnet1_Host[17].lpi_client  "EEE-Link Power"  ETV
vector 1000  EPL_tii2014.Subnet1_Host[17].lpi_client  "NoEEE-Link Power"  ETV
vector 1001  EPL_tii2014.Subnet1_Host[18].lpi_client  "EEE-Link Power"  ETV
vector 1002  EPL_tii2014.Subnet1_Host[18].lpi_client  "NoEEE-Link Power"  ETV
vector 1003  EPL_tii2014.Subnet1_Host[19].lpi_client  "EEE-Link Power"  ETV
vector 1004  EPL_tii2014.Subnet1_Host[19].lpi_client  "NoEEE-Link Power"  ETV
vector 1005  EPL_tii2014.Subnet2_Host[0].lpi_client  "EEE-Link Power"  ETV
vector 1006  EPL_tii2014.Subnet2_Host[0].lpi_client  "NoEEE-Link Power"  ETV
vector 1007  EPL_tii2014.Subnet2_Host[1].lpi_client  "EEE-Link Power"  ETV
vector 1008  EPL_tii2014.Subnet2_Host[1].lpi_client  "NoEEE-Link Power"  ETV
vector 1009  EPL_tii2014.Subnet2_Host[2].lpi_client  "EEE-Link Power"  ETV
vector 1010  EPL_tii2014.Subnet2_Host[2].lpi_client  "NoEEE-Link Power"  ETV
vector 1011  EPL_tii2014.Subnet2_Host[3].lpi_client  "EEE-Link Power"  ETV
vector 1012  EPL_tii2014.Subnet2_Host[3].lpi_client  "NoEEE-Link Power"  ETV
vector 1013  EPL_tii2014.Subnet2_Host[4].lpi_client  "EEE-Link Power"  ETV
vector 1014  EPL_tii2014.Subnet2_Host[4].lpi_client  "NoEEE-Link Power"  ETV
vector 1015  EPL_tii2014.Subnet2_Host[5].lpi_client  "EEE-Link Power"  ETV
vector 1016  EPL_tii2014.Subnet2_Host[5].lpi_client  "NoEEE-Link Power"  ETV
vector 1017  EPL_tii2014.Subnet2_Host[6].lpi_client  "EEE-Link Power"  ETV
vector 1018  EPL_tii2014.Subnet2_Host[6].lpi_client  "NoEEE-Link Power"  ETV
vector 1019  EPL_tii2014.Subnet2_Host[7].lpi_client  "EEE-Link Power"  ETV
vector 1020  EPL_tii2014.Subnet2_Host[7].lpi_client  "NoEEE-Link Power"  ETV
vector 1021  EPL_tii2014.Subnet2_Host[8].lpi_client  "EEE-Link Power"  ETV
vector 1022  EPL_tii2014.Subnet2_Host[8].lpi_client  "NoEEE-Link Power"  ETV
vector 1023  EPL_tii2014.Subnet2_Host[9].lpi_client  "EEE-Link Power"  ETV
vector 1024  EPL_tii2014.Subnet2_Host[9].lpi_client  "NoEEE-Link Power"  ETV
vector 13  EPL_tii2014.PLC.lpi_client  linkPLPI_time:vector  ETV
attr source  partial_lpi_time
vector 29  EPL_tii2014.switch0.eth[0].lpi_client  linkPLPI_time:vector  ETV
attr source  partial_lpi_time
vector 40  EPL_tii2014.switch0.eth[1].lpi_client  linkPLPI_time:vector  ETV
attr source  partial_lpi_time
vector 51  EPL_tii2014.switch0.eth[2].lpi_client  linkPLPI_time:vector  ETV
attr source  partial_lpi_time
vector 65  EPL_tii2014.switch1.eth[0].lpi_client  linkPLPI_time:vector  ETV
attr source  partial_lpi_time
vector 76  EPL_tii2014.switch1.eth[1].lpi_client  linkPLPI_time:vector  ETV
attr source  partial_lpi_time
vector 87  EPL_tii2014.switch1.eth[2].lpi_client  linkPLPI_time:vector  ETV
attr source  partial_lpi_time
vector 98  EPL_tii2014.switch1.eth[3].lpi_client  linkPLPI_time:vector  ETV
attr source  partial_lpi_time
vector 109  EPL_tii2014.switch1.eth[4].lpi_client  linkPLPI_time:vector  ETV
attr source  partial_lpi_time
vector 120  EPL_tii2014.switch1.eth[5].lpi_client  linkPLPI_time:vector  ETV
attr source  partial_lpi_time
vector 131  EPL_tii2014.switch1.eth[6].lpi_client  linkPLPI_time:vector  ETV
attr source  partial_lpi_time
vector 142  EPL_tii2014.switch1.eth[7].lpi_client  linkPLPI_time:vector  ETV
attr source  partial_lpi_time
vector 153  EPL_tii2014.switch1.eth[8].lpi_client  linkPLPI_time:vector  ETV
attr source  partial_lpi_time
vector 164  EPL_tii2014.switch1.eth[9].lpi_client  linkPLPI_time:vector  ETV
attr source  partial_lpi_time
vector 175  EPL_tii2014.switch1.eth[10].lpi_client  linkPLPI_time:vector  ETV
attr source  partial_lpi_time
vector 186  EPL_tii2014.switch1.eth[11].lpi_client  linkPLPI_time:vector  ETV
attr source  partial_lpi_time
vector 197  EPL_tii2014.switch1.eth[12].lpi_client  linkPLPI_time:vector  ETV
attr source  partial_lpi_time
vector 208  EPL_tii2014.switch1.eth[13].lpi_client  linkPLPI_time:vector  ETV
attr source  partial_lpi_time
vector 219  EPL_tii2014.switch1.eth[14].lpi_client  linkPLPI_time:vector  ETV
attr source  partial_lpi_time
vector 230  EPL_tii2014.switch1.eth[15].lpi_client  linkPLPI_time:vector  ETV
attr source  partial_lpi_time
vector 241  EPL_tii2014.switch1.eth[16].lpi_client  linkPLPI_time:vector  ETV
attr source  partial_lpi_time
vector 252  EPL_tii2014.switch1.eth[17].lpi_client  linkPLPI_time:vector  ETV
attr source  partial_lpi_time
vector 263  EPL_tii2014.switch1.eth[18].lpi_client  linkPLPI_time:vector  ETV
attr source  partial_lpi_time
vector 274  EPL_tii2014.switch1.eth[19].lpi_client  linkPLPI_time:vector  ETV
attr source  partial_lpi_time
vector 285  EPL_tii2014.switch1.eth[20].lpi_client  linkPLPI_time:vector  ETV
attr source  partial_lpi_time
vector 299  EPL_tii2014.switch2.eth[0].lpi_client  linkPLPI_time:vector  ETV
attr source  partial_lpi_time
vector 310  EPL_tii2014.switch2.eth[1].lpi_client  linkPLPI_time:vector  ETV
attr source  partial_lpi_time
vector 321  EPL_tii2014.switch2.eth[2].lpi_client  linkPLPI_time:vector  ETV
attr source  partial_lpi_time
vector 332  EPL_tii2014.switch2.eth[3].lpi_client  linkPLPI_time:vector  ETV
attr source  partial_lpi_time
vector 343  EPL_tii2014.switch2.eth[4].lpi_client  linkPLPI_time:vector  ETV
attr source  partial_lpi_time
vector 354  EPL_tii2014.switch2.eth[5].lpi_client  linkPLPI_time:vector  ETV
attr source  partial_lpi_time
vector 365  EPL_tii2014.switch2.eth[6].lpi_client  linkPLPI_time:vector  ETV
attr source  partial_lpi_time
vector 376  EPL_tii2014.switch2.eth[7].lpi_client  linkPLPI_time:vector  ETV
attr source  partial_lpi_time
vector 387  EPL_tii2014.switch2.eth[8].lpi_client  linkPLPI_time:vector  ETV
attr source  partial_lpi_time
vector 398  EPL_tii2014.switch2.eth[9].lpi_client  linkPLPI_time:vector  ETV
attr source  partial_lpi_time
vector 409  EPL_tii2014.switch2.eth[10].lpi_client  linkPLPI_time:vector  ETV
attr source  partial_lpi_time
vector 423  EPL_tii2014.Subnet1_Host[0].lpi_client  linkPLPI_time:vector  ETV
attr source  partial_lpi_time
vector 439  EPL_tii2014.Subnet1_Host[1].lpi_client  linkPLPI_time:vector  ETV
attr source  partial_lpi_time
vector 455  EPL_tii2014.Subnet1_Host[2].lpi_client  linkPLPI_time:vector  ETV
attr source  partial_lpi_time
vector 471  EPL_tii2014.Subnet1_Host[3].lpi_client  linkPLPI_time:vector  ETV
attr source  partial_lpi_time
vector 487  EPL_tii2014.Subnet1_Host[4].lpi_client  linkPLPI_time:vector  ETV
attr source  partial_lpi_time
vector 503  EPL_tii2014.Subnet1_Host[5].lpi_client  linkPLPI_time:vector  ETV
attr source  partial_lpi_time
vector 519  EPL_tii2014.Subnet1_Host[6].lpi_client  linkPLPI_time:vector  ETV
attr source  partial_lpi_time
vector 535  EPL_tii2014.Subnet1_Host[7].lpi_client  linkPLPI_time:vector  ETV
attr source  partial_lpi_time
vector 551  EPL_tii2014.Subnet1_Host[8].lpi_client  linkPLPI_time:vector  ETV
attr source  partial_lpi_time
vector 567  EPL_tii2014.Subnet1_Host[9].lpi_client  linkPLPI_time:vector  ETV
attr source  partial_lpi_time
vector 583  EPL_tii2014.Subnet1_Host[10].lpi_client  linkPLPI_time:vector  ETV
attr source  partial_lpi_time
vector 599  EPL_tii2014.Subnet1_Host[11].lpi_client  linkPLPI_time:vector  ETV
attr source  partial_lpi_time
vector 615  EPL_tii2014.Subnet1_Host[12].lpi_client  linkPLPI_time:vector  ETV
attr source  partial_lpi_time
vector 631  EPL_tii2014.Subnet1_Host[13].lpi_client  linkPLPI_time:vector  ETV
attr source  partial_lpi_time
vector 647  EPL_tii2014.Subnet1_Host[14].lpi_client  linkPLPI_time:vector  ETV
attr source  partial_lpi_time
vector 663  EPL_tii2014.Subnet1_Host[15].lpi_client  linkPLPI_time:vector  ETV
attr source  partial_lpi_time
vector 679  EPL_tii2014.Subnet1_Host[16].lpi_client  linkPLPI_time:vector  ETV
attr source  partial_lpi_time
vector 695  EPL_tii2014.Subnet1_Host[17].lpi_client  linkPLPI_time:vector  ETV
attr source  partial_lpi_time
vector 711  EPL_tii2014.Subnet1_Host[18].lpi_client  linkPLPI_time:vector  ETV
attr source  partial_lpi_time
vector 727  EPL_tii2014.Subnet1_Host[19].lpi_client  linkPLPI_time:vector  ETV
attr source  partial_lpi_time
vector 743  EPL_tii2014.Subnet2_Host[0].lpi_client  linkPLPI_time:vector  ETV
attr source  partial_lpi_time
vector 759  EPL_tii2014.Subnet2_Host[1].lpi_client  linkPLPI_time:vector  ETV
attr source  partial_lpi_time
vector 775  EPL_tii2014.Subnet2_Host[2].lpi_client  linkPLPI_time:vector  ETV
attr source  partial_lpi_time
vector 791  EPL_tii2014.Subnet2_Host[3].lpi_client  linkPLPI_time:vector  ETV
attr source  partial_lpi_time
vector 807  EPL_tii2014.Subnet2_Host[4].lpi_client  linkPLPI_time:vector  ETV
attr source  partial_lpi_time
vector 823  EPL_tii2014.Subnet2_Host[5].lpi_client  linkPLPI_time:vector  ETV
attr source  partial_lpi_time
vector 839  EPL_tii2014.Subnet2_Host[6].lpi_client  linkPLPI_time:vector  ETV
attr source  partial_lpi_time
vector 855  EPL_tii2014.Subnet2_Host[7].lpi_client  linkPLPI_time:vector  ETV
attr source  partial_lpi_time
vector 871  EPL_tii2014.Subnet2_Host[8].lpi_client  linkPLPI_time:vector  ETV
attr source  partial_lpi_time
vector 887  EPL_tii2014.Subnet2_Host[9].lpi_client  linkPLPI_time:vector  ETV
attr source  partial_lpi_time
vector 15  EPL_tii2014.PLC.MN  sentPk:vector(packetBytes)  ETV
attr interpolationmode  none
attr source  sentPk
attr title  "packets sent, vector(packetBytes)"
vector 0  EPL_tii2014.PLC.llc  encapPk:vector(packetBytes)  ETV
attr interpolationmode  none
attr source  encapPk
attr title  "packets encapsulated, vector(packetBytes)"
vector 8  EPL_tii2014.PLC.mac  rxPkFromHL:vector(packetBytes)  ETV
attr interpolationmode  none
attr source  rxPkFromHL
attr title  "packet bytes from higher layer, vector(packetBytes)"
vector 12  EPL_tii2014.PLC.lpi_client  linkLPI_time:vector  ETV
attr source  lpi_time
vector 20  EPL_tii2014.switch0.eth[0].mac  rxPkOk:vector(packetBytes)  ETV
attr interpolationmode  none
attr source  rxPkOk
attr title  "packets received OK, vector(packetBytes)"
vector 21  EPL_tii2014.switch0.eth[0].mac  passedUpPk:vector(packetBytes)  ETV
attr interpolationmode  none
attr source  packetSentToUpper
attr title  "packets passed to higher layer, vector(packetBytes)"
vector 3  EPL_tii2014.PLC.mac  txPk:vector(packetBytes)  ETV
attr interpolationmode  none
attr source  txPk
attr title  "packets transmitted, vector(packetBytes)"
vector 892  EPL_tii2014.switch0.relayUnit  "buffer level"  ETV
vector 35  EPL_tii2014.switch0.eth[1].mac  rxPkFromHL:vector(packetBytes)  ETV
attr interpolationmode  none
attr source  rxPkFromHL
attr title  "packet bytes from higher layer, vector(packetBytes)"
vector 46  EPL_tii2014.switch0.eth[2].mac  rxPkFromHL:vector(packetBytes)  ETV
attr interpolationmode  none
attr source  rxPkFromHL
attr title  "packet bytes from higher layer, vector(packetBytes)"
vector 39  EPL_tii2014.switch0.eth[1].lpi_client  linkLPI_time:vector  ETV
attr source  lpi_time
vector 50  EPL_tii2014.switch0.eth[2].lpi_client  linkLPI_time:vector  ETV
attr source  lpi_time
vector 56  EPL_tii2014.switch1.eth[0].mac  rxPkOk:vector(packetBytes)  ETV
attr interpolationmode  none
attr source  rxPkOk
attr title  "packets received OK, vector(packetBytes)"
vector 57  EPL_tii2014.switch1.eth[0].mac  passedUpPk:vector(packetBytes)  ETV
attr interpolationmode  none
attr source  packetSentToUpper
attr title  "packets passed to higher layer, vector(packetBytes)"
vector 30  EPL_tii2014.switch0.eth[1].mac  txPk:vector(packetBytes)  ETV
attr interpolationmode  none
attr source  txPk
attr title  "packets transmitted, vector(packetBytes)"
vector 290  EPL_tii2014.switch2.eth[0].mac  rxPkOk:vector(packetBytes)  ETV
attr interpolationmode  none
attr source  rxPkOk
attr title  "packets received OK, vector(packetBytes)"
vector 291  EPL_tii2014.switch2.eth[0].mac  passedUpPk:vector(packetBytes)  ETV
attr interpolationmode  none
attr source  packetSentToUpper
attr title  "packets passed to higher layer, vector(packetBytes)"
vector 41  EPL_tii2014.switch0.eth[2].mac  txPk:vector(packetBytes)  ETV
attr interpolationmode  none
attr source  txPk
attr title  "packets transmitted, vector(packetBytes)"
vector 899  EPL_tii2014.switch1.relayUnit  "buffer level"  ETV
vector 942  EPL_tii2014.switch2.relayUnit  "buffer level"  ETV
vector 71  EPL_tii2014.switch1.eth[1].mac  rxPkFromHL:vector(packetBytes)  ETV
attr interpolationmode  none
attr source  rxPkFromHL
attr title  "packet bytes from higher layer, vector(packetBytes)"
vector 82  EPL_tii2014.switch1.eth[2].mac  rxPkFromHL:vector(packetBytes)  ETV
attr interpolationmode  none
attr source  rxPkFromHL
attr title  "packet bytes from higher layer, vector(packetBytes)"
vector 93  EPL_tii2014.switch1.eth[3].mac  rxPkFromHL:vector(packetBytes)  ETV
attr interpolationmode  none
attr source  rxPkFromHL
attr title  "packet bytes from higher layer, vector(packetBytes)"
vector 104  EPL_tii2014.switch1.eth[4].mac  rxPkFromHL:vector(packetBytes)  ETV
attr interpolationmode  none
attr source  rxPkFromHL
attr title  "packet bytes from higher layer, vector(packetBytes)"
vector 115  EPL_tii2014.switch1.eth[5].mac  rxPkFromHL:vector(packetBytes)  ETV
attr interpolationmode  none
attr source  rxPkFromHL
attr title  "packet bytes from higher layer, vector(packetBytes)"
vector 126  EPL_tii2014.switch1.eth[6].mac  rxPkFromHL:vector(packetBytes)  ETV
attr interpolationmode  none
attr source  rxPkFromHL
attr title  "packet bytes from higher layer, vector(packetBytes)"
vector 137  EPL_tii2014.switch1.eth[7].mac  rxPkFromHL:vector(packetBytes)  ETV
attr interpolationmode  none
attr source  rxPkFromHL
attr title  "packet bytes from higher layer, vector(packetBytes)"
vector 148  EPL_tii2014.switch1.eth[8].mac  rxPkFromHL:vector(packetBytes)  ETV
attr interpolationmode  none
attr source  rxPkFromHL
attr title  "packet bytes from higher layer, vector(packetBytes)"
vector 159  EPL_tii2014.switch1.eth[9].mac  rxPkFromHL:vector(packetBytes)  ETV
attr interpolationmode  none
attr source  rxPkFromHL
attr title  "packet bytes from higher layer, vector(packetBytes)"
vector 170  EPL_tii2014.switch1.eth[10].mac  rxPkFromHL:vector(packetBytes)  ETV
attr interpolationmode  none
attr source  rxPkFromHL
attr title  "packet bytes from higher layer, vector(packetBytes)"
vector 181  EPL_tii2014.switch1.eth[11].mac  rxPkFromHL:vector(packetBytes)  ETV
attr interpolationmode  none
attr source  rxPkFromHL
attr title  "packet bytes from higher layer, vector(packetBytes)"
vector 192  EPL_tii2014.switch1.eth[12].mac  rxPkFromHL:vector(packetBytes)  ETV
attr interpolationmode  none
attr source  rxPkFromHL
attr title  "packet bytes from higher layer, vector(packetBytes)"
vector 203  EPL_tii2014.switch1.eth[13].mac  rxPkFromHL:vector(packetBytes)  ETV
attr interpolationmode  none
attr source  rxPkFromHL
attr title  "packet bytes from higher layer, vector(packetBytes)"
vector 214  EPL_tii2014.switch1.eth[14].mac  rxPkFromHL:vector(packetBytes)  ETV
attr interpolationmode  none
attr source  rxPkFromHL
attr title  "packet bytes from higher layer, vector(packetBytes)"
vector 225  EPL_tii2014.switch1.eth[15].mac  rxPkFromHL:vector(packetBytes)  ETV
attr interpolationmode  none
attr source  rxPkFromHL
attr title  "packet bytes from higher layer, vector(packetBytes)"
vector 236  EPL_tii2014.switch1.eth[16].mac  rxPkFromHL:vector(packetBytes)  ETV
attr interpolationmode  none
attr source  rxPkFromHL
attr title  "packet bytes from higher layer, vector(packetBytes)"
vector 247  EPL_tii2014.switch1.eth[17].mac  rxPkFromHL:vector(packetBytes)  ETV
attr interpolationmode  none
attr source  rxPkFromHL
attr title  "packet bytes from higher layer, vector(packetBytes)"
vector 258  EPL_tii2014.switch1.eth[18].mac  rxPkFromHL:vector(packetBytes)  ETV
attr interpolationmode  none
attr source  rxPkFromHL
attr title  "packet bytes from higher layer, vector(packetBytes)"
vector 269  EPL_tii2014.switch1.eth[19].mac  rxPkFromHL:vector(packetBytes)  ETV
attr interpolationmode  none
attr source  rxPkFromHL
attr title  "packet bytes from higher layer, vector(packetBytes)"
vector 280  EPL_tii2014.switch1.eth[20].mac  rxPkFromHL:vector(packetBytes)  ETV
attr interpolationmode  none
attr source  rxPkFromHL
attr title  "packet bytes from higher layer, vector(packetBytes)"
vector 305  EPL_tii2014.switch2.eth[1].mac  rxPkFromHL:vector(packetBytes)  ETV
attr interpolationmode  none
attr source  rxPkFromHL
attr title  "packet bytes from higher layer, vector(packetBytes)"
vector 316  EPL_tii2014.switch2.eth[2].mac  rxPkFromHL:vector(packetBytes)  ETV
attr interpolationmode  none
attr source  rxPkFromHL
attr title  "packet bytes from higher layer, vector(packetBytes)"
vector 327  EPL_tii2014.switch2.eth[3].mac  rxPkFromHL:vector(packetBytes)  ETV
attr interpolationmode  none
attr source  rxPkFromHL
attr title  "packet bytes from higher layer, vector(packetBytes)"
vector 338  EPL_tii2014.switch2.eth[4].mac  rxPkFromHL:vector(packetBytes)  ETV
attr interpolationmode  none
attr source  rxPkFromHL
attr title  "packet bytes from higher layer, vector(packetBytes)"
vector 349  EPL_tii2014.switch2.eth[5].mac  rxPkFromHL:vector(packetBytes)  ETV
attr interpolationmode  none
attr source  rxPkFromHL
attr title  "packet bytes from higher layer, vector(packetBytes)"
vector 360  EPL_tii2014.switch2.eth[6].mac  rxPkFromHL:vector(packetBytes)  ETV
attr interpolationmode  none
attr source  rxPkFromHL
attr title  "packet bytes from higher layer, vector(packetBytes)"
vector 371  EPL_tii2014.switch2.eth[7].mac  rxPkFromHL:vector(packetBytes)  ETV
attr interpolationmode  none
attr source  rxPkFromHL
attr title  "packet bytes from higher layer, vector(packetBytes)"
vector 382  EPL_tii2014.switch2.eth[8].mac  rxPkFromHL:vector(packetBytes)  ETV
attr interpolationmode  none
attr source  rxPkFromHL
attr title  "packet bytes from higher layer, vector(packetBytes)"
vector 393  EPL_tii2014.switch2.eth[9].mac  rxPkFromHL:vector(packetBytes)  ETV
attr interpolationmode  none
attr source  rxPkFromHL
attr title  "packet bytes from higher layer, vector(packetBytes)"
vector 404  EPL_tii2014.switch2.eth[10].mac  rxPkFromHL:vector(packetBytes)  ETV
attr interpolationmode  none
attr source  rxPkFromHL
attr title  "packet bytes from higher layer, vector(packetBytes)"
vector 75  EPL_tii2014.switch1.eth[1].lpi_client  linkLPI_time:vector  ETV
attr source  lpi_time
vector 86  EPL_tii2014.switch1.eth[2].lpi_client  linkLPI_time:vector  ETV
attr source  lpi_time
vector 97  EPL_tii2014.switch1.eth[3].lpi_client  linkLPI_time:vector  ETV
attr source  lpi_time
vector 108  EPL_tii2014.switch1.eth[4].lpi_client  linkLPI_time:vector  ETV
attr source  lpi_time
vector 119  EPL_tii2014.switch1.eth[5].lpi_client  linkLPI_time:vector  ETV
attr source  lpi_time
vector 130  EPL_tii2014.switch1.eth[6].lpi_client  linkLPI_time:vector  ETV
attr source  lpi_time
vector 141  EPL_tii2014.switch1.eth[7].lpi_client  linkLPI_time:vector  ETV
attr source  lpi_time
vector 152  EPL_tii2014.switch1.eth[8].lpi_client  linkLPI_time:vector  ETV
attr source  lpi_time
vector 163  EPL_tii2014.switch1.eth[9].lpi_client  linkLPI_time:vector  ETV
attr source  lpi_time
vector 174  EPL_tii2014.switch1.eth[10].lpi_client  linkLPI_time:vector  ETV
attr source  lpi_time
vector 185  EPL_tii2014.switch1.eth[11].lpi_client  linkLPI_time:vector  ETV
attr source  lpi_time
vector 196  EPL_tii2014.switch1.eth[12].lpi_client  linkLPI_time:vector  ETV
attr source  lpi_time
vector 207  EPL_tii2014.switch1.eth[13].lpi_client  linkLPI_time:vector  ETV
attr source  lpi_time
vector 218  EPL_tii2014.switch1.eth[14].lpi_client  linkLPI_time:vector  ETV
attr source  lpi_time
vector 229  EPL_tii2014.switch1.eth[15].lpi_client  linkLPI_time:vector  ETV
attr source  lpi_time
vector 240  EPL_tii2014.switch1.eth[16].lpi_client  linkLPI_time:vector  ETV
attr source  lpi_time
vector 251  EPL_tii2014.switch1.eth[17].lpi_client  linkLPI_time:vector  ETV
attr source  lpi_time
vector 262  EPL_tii2014.switch1.eth[18].lpi_client  linkLPI_time:vector  ETV
attr source  lpi_time
vector 273  EPL_tii2014.switch1.eth[19].lpi_client  linkLPI_time:vector  ETV
attr source  lpi_time
vector 284  EPL_tii2014.switch1.eth[20].lpi_client  linkLPI_time:vector  ETV
attr source  lpi_time
vector 309  EPL_tii2014.switch2.eth[1].lpi_client  linkLPI_time:vector  ETV
attr source  lpi_time
vector 320  EPL_tii2014.switch2.eth[2].lpi_client  linkLPI_time:vector  ETV
attr source  lpi_time
vector 331  EPL_tii2014.switch2.eth[3].lpi_client  linkLPI_time:vector  ETV
attr source  lpi_time
vector 342  EPL_tii2014.switch2.eth[4].lpi_client  linkLPI_time:vector  ETV
attr source  lpi_time
vector 353  EPL_tii2014.switch2.eth[5].lpi_client  linkLPI_time:vector  ETV
attr source  lpi_time
vector 364  EPL_tii2014.switch2.eth[6].lpi_client  linkLPI_time:vector  ETV
attr source  lpi_time
vector 375  EPL_tii2014.switch2.eth[7].lpi_client  linkLPI_time:vector  ETV
attr source  lpi_time
vector 386  EPL_tii2014.switch2.eth[8].lpi_client  linkLPI_time:vector  ETV
attr source  lpi_time
vector 397  EPL_tii2014.switch2.eth[9].lpi_client  linkLPI_time:vector  ETV
attr source  lpi_time
vector 408  EPL_tii2014.switch2.eth[10].lpi_client  linkLPI_time:vector  ETV
attr source  lpi_time
vector 414  EPL_tii2014.Subnet1_Host[0].mac  rxPkOk:vector(packetBytes)  ETV
attr interpolationmode  none
attr source  rxPkOk
attr title  "packets received OK, vector(packetBytes)"
vector 415  EPL_tii2014.Subnet1_Host[0].mac  passedUpPk:vector(packetBytes)  ETV
attr interpolationmode  none
attr source  packetSentToUpper
attr title  "packets passed to higher layer, vector(packetBytes)"