version 2
run dopoPres-0-20130403-22:54:23-29846
attr configname dopoPres
attr datetime 20130403-22:54:23
attr experiment dopoPres
attr inifile EPL_test.ini
attr iterationvars ""
attr iterationvars2 $repetition=0
attr measurement ""
attr network eeepowerlink.networks.EPL_test
attr processid 29846
attr repetition 0
attr replication #0
attr resultdir results
attr runnumber 0
attr seedset 0

vector 53  EPL_test.Host0.lpi_client  "EEE-Link Power"  ETV
vector 54  EPL_test.PLC.lpi_client  "EEE-Link Power"  ETV
vector 55  EPL_test.Host1.lpi_client  "EEE-Link Power"  ETV
vector 52  EPL_test.switch  "EEE-Link Power"  ETV
vector 3  EPL_test.Host0.llc  dsap:vector  ETV
attr title  "dsap registering, vector"
vector 37  EPL_test.Host1.llc  dsap:vector  ETV
attr title  "dsap registering, vector"
vector 20  EPL_test.PLC.llc  dsap:vector  ETV
attr title  "dsap registering, vector"
vector 21  EPL_test.PLC.llc  encapPk:vector(packetBytes)  ETV
attr interpolationmode  none
attr source  encapPk
attr title  "packets encapsulated, vector(packetBytes)"
vector 31  EPL_test.PLC.mac  rxPkFromHL:vector(packetBytes)  ETV
attr interpolationmode  none
attr source  rxPkFromHL
attr title  "packet bytes from higher layer, vector(packetBytes)"
vector 0  EPL_test.switch  pk:vector(packetBytes)  ETV
attr interpolationmode  none
attr source  pk
attr title  "packets, vector(packetBytes)"
vector 26  EPL_test.PLC.mac  txPk:vector(packetBytes)  ETV
attr interpolationmode  none
attr source  txPk
attr title  "packets transmitted, vector(packetBytes)"
vector 10  EPL_test.Host0.mac  rxPkOk:vector(packetBytes)  ETV
attr interpolationmode  none
attr source  rxPkOk
attr title  "packets received OK, vector(packetBytes)"
vector 11  EPL_test.Host0.mac  passedUpPk:vector(packetBytes)  ETV
attr interpolationmode  none
attr source  packetSentToUpper
attr title  "packets passed to higher layer, vector(packetBytes)"
vector 44  EPL_test.Host1.mac  rxPkOk:vector(packetBytes)  ETV
attr interpolationmode  none
attr source  rxPkOk
attr title  "packets received OK, vector(packetBytes)"
vector 45  EPL_test.Host1.mac  passedUpPk:vector(packetBytes)  ETV
attr interpolationmode  none
attr source  packetSentToUpper
attr title  "packets passed to higher layer, vector(packetBytes)"
vector 5  EPL_test.Host0.llc  decapPk:vector(packetBytes)  ETV
attr interpolationmode  none
attr source  decapPk
attr title  "packets decapsulated, vector(packetBytes)"
vector 6  EPL_test.Host0.llc  passedUpPk:vector(packetBytes)  ETV
attr interpolationmode  none
attr source  passedUpPk
attr title  "packets passed up, vector(packetBytes)"
vector 39  EPL_test.Host1.llc  decapPk:vector(packetBytes)  ETV
attr interpolationmode  none
attr source  decapPk
attr title  "packets decapsulated, vector(packetBytes)"
vector 40  EPL_test.Host1.llc  passedUpPk:vector(packetBytes)  ETV
attr interpolationmode  none
attr source  passedUpPk
attr title  "packets passed up, vector(packetBytes)"
vector 19  EPL_test.PLC.MN  sentPk:vector(packetBytes)  ETV
attr interpolationmode  none
attr source  sentPk
attr title  "packets sent, vector(packetBytes)"
vector 1  EPL_test.Host0.CN  rcvdPk:vector(packetBytes)  ETV
attr interpolationmode  none
attr source  rcvdPk
attr title  "packets received, vector(packetBytes)"
vector 2  EPL_test.Host0.CN  sentPk:vector(packetBytes)  ETV
attr interpolationmode  none
attr source  sentPk
attr title  "packets sent, vector(packetBytes)"
vector 4  EPL_test.Host0.llc  encapPk:vector(packetBytes)  ETV
attr interpolationmode  none
attr source  encapPk
attr title  "packets encapsulated, vector(packetBytes)"
vector 14  EPL_test.Host0.mac  rxPkFromHL:vector(packetBytes)  ETV
attr interpolationmode  none
attr source  rxPkFromHL
attr title  "packet bytes from higher layer, vector(packetBytes)"
vector 9  EPL_test.Host0.mac  txPk:vector(packetBytes)  ETV
attr interpolationmode  none
attr source  txPk
attr title  "packets transmitted, vector(packetBytes)"
vector 27  EPL_test.PLC.mac  rxPkOk:vector(packetBytes)  ETV
attr interpolationmode  none
attr source  rxPkOk
attr title  "packets received OK, vector(packetBytes)"
vector 28  EPL_test.PLC.mac  passedUpPk:vector(packetBytes)  ETV
attr interpolationmode  none
attr source  packetSentToUpper
attr title  "packets passed to higher layer, vector(packetBytes)"
vector 22  EPL_test.PLC.llc  decapPk:vector(packetBytes)  ETV
attr interpolationmode  none
attr source  decapPk
attr title  "packets decapsulated, vector(packetBytes)"
vector 23  EPL_test.PLC.llc  passedUpPk:vector(packetBytes)  ETV
attr interpolationmode  none
attr source  passedUpPk
attr title  "packets passed up, vector(packetBytes)"
vector 41  EPL_test.Host1.llc  droppedPkUnknownDSAP:vector(packetBytes)  ETV
attr interpolationmode  none
attr source  droppedPkUnknownDSAP
attr title  "dropped packets unknown DSAP, vector(packetBytes)"
vector 18  EPL_test.PLC.MN  rcvdPk:vector(packetBytes)  ETV
attr interpolationmode  none
attr source  rcvdPk
attr title  "packets received, vector(packetBytes)"
vector 35  EPL_test.Host1.CN  rcvdPk:vector(packetBytes)  ETV
attr interpolationmode  none
attr source  rcvdPk
attr title  "packets received, vector(packetBytes)"
vector 36  EPL_test.Host1.CN  sentPk:vector(packetBytes)  ETV
attr interpolationmode  none
attr source  sentPk
attr title  "packets sent, vector(packetBytes)"
vector 38  EPL_test.Host1.llc  encapPk:vector(packetBytes)  ETV
attr interpolationmode  none
attr source  encapPk
attr title  "packets encapsulated, vector(packetBytes)"
vector 48  EPL_test.Host1.mac  rxPkFromHL:vector(packetBytes)  ETV
attr interpolationmode  none
attr source  rxPkFromHL
attr title  "packet bytes from higher layer, vector(packetBytes)"
vector 43  EPL_test.Host1.mac  txPk:vector(packetBytes)  ETV
attr interpolationmode  none
attr source  txPk
attr title  "packets transmitted, vector(packetBytes)"
vector 7  EPL_test.Host0.llc  droppedPkUnknownDSAP:vector(packetBytes)  ETV
attr interpolationmode  none
attr source  droppedPkUnknownDSAP
attr title  "dropped packets unknown DSAP, vector(packetBytes)"
0	15	0.000027219999	71
0	39	0.000082359997	72
0	55	0.000097499995	72
0	70	0.000129599993	74
0	84	0.000143199991	72
0	99	0.000175299989	74
0	116	0.000188899987	72
0	122	0.000195619986	72
0	140	0.000202339985	72
0	142	0.000202339985	72
0	159	0.001227219999	71
0	183	0.001282359997	72
0	199	0.001297499995	72
0	214	0.001329599993	74
0	228	0.001343199991	72
0	243	0.001375299989	74
0	260	0.001388899987	72
0	266	0.001395619986	72
0	284	0.001402339985	72
0	286	0.001402339985	72
0	303	0.002427219999	71
0	327	0.002482359997	72
0	343	0.002497499995	72
0	358	0.002529599993	74
0	372	0.002543199991	72
0	387	0.002575299989	74
0	404	0.002588899987	72
0	410	0.002595619986	72
0	428	0.002602339985	72
0	430	0.002602339985	72
0	447	0.003627219999	71
0	471	0.003682359997	72
0	487	0.003697499995	72
0	502	0.003729599993	74
0	516	0.003743199991	72
0	531	0.003775299989	74
0	548	0.003788899987	72
0	554	0.003795619986	72
0	572	0.003802339985	72
0	574	0.003802339985	72
0	591	0.004827219999	71
0	615	0.004882359997	72
0	631	0.004897499995	72
0	646	0.004929599993	74
0	660	0.004943199991	72
0	675	0.004975299989	74
0	692	0.004988899987	72
0	698	0.004995619986	72
0	716	0.005002339985	72
0	718	0.005002339985	72
0	735	0.006027219999	71
0	759	0.006082359997	72
0	775	0.006097499995	72
0	790	0.006129599993	74
0	804	0.006143199991	72
0	819	0.006175299989	74
0	836	0.006188899987	72
0	842	0.006195619986	72
0	860	0.006202339985	72
0	862	0.006202339985	72
0	879	0.007227219999	71
0	903	0.007282359997	72
0	919	0.007297499995	72
0	934	0.007329599993	74
0	948	0.007343199991	72
0	963	0.007375299989	74
0	980	0.007388899987	72
0	986	0.007395619986	72
0	1004	0.007402339985	72
0	1006	0.007402339985	72
0	1023	0.008427219999	71
0	1047	0.008482359997	72
0	1063	0.008497499995	72
0	1078	0.008529599993	74
0	1092	0.008543199991	72
0	1107	0.008575299989	74
0	1124	0.008588899987	72
0	1130	0.008595619986	72
0	1148	0.008602339985	72
0	1150	0.008602339985	72
0	1167	0.009627219999	71
0	1191	0.009682359997	72
0	1207	0.009697499995	72
0	1222	0.009729599993	74
0	1236	0.009743199991	72
0	1251	0.009775299989	74
0	1268	0.009788899987	72
0	1274	0.009795619986	72
0	1292	0.009802339985	72
0	1294	0.009802339985	72
0	1311	0.010827219999	71
0	1335	0.010882359997	72
0	1351	0.010897499995	72
0	1366	0.010929599993	74
0	1380	0.010943199991	72
0	1395	0.010975299989	74
0	1412	0.010988899987	72
0	1418	0.010995619986	72
0	1436	0.011002339985	72
0	1438	0.011002339985	72
0	1455	0.012027219999	71
0	1479	0.012082359997	72
0	1495	0.012097499995	72
0	1510	0.012129599993	74
0	1524	0.012143199991	72
0	1539	0.012175299989	74
0	1556	0.012188899987	72
0	1562	0.012195619986	72
0	1580	0.012202339985	72
0	1582	0.012202339985	72
0	1599	0.013227219999	71
0	1623	0.013282359997	72
0	1639	0.013297499995	72
0	1654	0.013329599993	74
0	1668	0.013343199991	72
0	1683	0.013375299989	74
0	1700	0.013388899987	72
0	1706	0.013395619986	72
0	1724	0.013402339985	72
0	1726	0.013402339985	72
0	1743	0.014427219999	71
0	1767	0.014482359997	72
0	1783	0.014497499995	72
0	1798	0.014529599993	74
0	1812	0.014543199991	72
0	1827	0.014575299989	74
0	1844	0.014588899987	72
0	1850	0.014595619986	72
0	1868	0.014602339985	72
0	1870	0.014602339985	72
0	1887	0.015627219999	71
0	1911	0.015682359997	72
0	1927	0.015697499995	72
0	1942	0.015729599993	74
0	1956	0.015743199991	72
0	1971	0.015775299989	74
0	1988	0.015788899987	72
0	1994	0.015795619986	72
0	2012	0.015802339985	72
0	2014	0.015802339985	72
0	2031	0.016827219999	71
0	2055	0.016882359997	72
0	2071	0.016897499995	72
0	2086	0.016929599993	74
0	2100	0.016943199991	72
0	2115	0.016975299989	74
0	2132	0.016988899987	72
0	2138	0.016995619986	72
0	2156	0.017002339985	72
0	2158	0.017002339985	72
0	2175	0.018027219999	71
0	2199	0.018082359997	72
0	2215	0.018097499995	72
0	2230	0.018129599993	74
0	2244	0.018143199991	72
0	2259	0.018175299989	74
0	2276	0.018188899987	72
0	2282	0.018195619986	72
0	2300	0.018202339985	72
0	2302	0.018202339985	72
0	2319	0.019227219999	71
0	2343	0.019282359997	72
0	2359	0.019297499995	72
0	2374	0.019329599993	74
0	2388	0.019343199991	72
0	2403	0.019375299989	74
0	2420	0.019388899987	72
0	2426	0.019395619986	72
0	2444	0.019402339985	72
0	2446	0.019402339985	72
0	2463	0.020427219999	71
0	2487	0.020482359997	72
0	2503	0.020497499995	72
0	2518	0.020529599993	74
0	2532	0.020543199991	72
0	2547	0.020575299989	74
0	2564	0.020588899987	72
0	2570	0.020595619986	72
0	2588	0.020602339985	72
0	2590	0.020602339985	72
0	2607	0.021627219999	71
0	2631	0.021682359997	72
0	2647	0.021697499995	72
0	2662	0.021729599993	74
0	2676	0.021743199991	72
0	2691	0.021775299989	74
0	2708	0.021788899987	72
0	2714	0.021795619986	72
0	2732	0.021802339985	72
0	2734	0.021802339985	72
0	2751	0.022827219999	71
0	2775	0.022882359997	72
0	2791	0.022897499995	72
0	2806	0.022929599993	74
0	2820	0.022943199991	72
0	2835	0.022975299989	74
0	2852	0.022988899987	72
0	2858	0.022995619986	72
0	2876	0.023002339985	72
0	2878	0.023002339985	72
0	2895	0.024027219999	71
0	2919	0.024082359997	72
0	2935	0.024097499995	72
0	2950	0.024129599993	74
0	2964	0.024143199991	72
0	2979	0.024175299989	74
0	2996	0.024188899987	72
0	3002	0.024195619986	72
0	3020	0.024202339985	72
0	3022	0.024202339985	72
0	3039	0.025227219999	71
0	3063	0.025282359997	72
0	3079	0.025297499995	72
0	3094	0.025329599993	74
0	3108	0.025343199991	72
0	3123	0.025375299989	74
0	3140	0.025388899987	72
0	3146	0.025395619986	72
0	3164	0.025402339985	72
0	3166	0.025402339985	72
0	3183	0.026427219999	71
0	3207	0.026482359997	72
0	3223	0.026497499995	72
0	3238	0.026529599993	74
0	3252	0.026543199991	72
0	3267	0.026575299989	74
0	3284	0.026588899987	72
0	3290	0.026595619986	72
0	3308	0.026602339985	72
0	3310	0.026602339985	72
0	3327	0.027627219999	71
0	3351	0.027682359997	72
0	3367	0.027697499995	72
0	3382	0.027729599993	74
0	3396	0.027743199991	72
0	3411	0.027775299989	74
0	3428	0.027788899987	72
0	3434	0.027795619986	72
0	3452	0.027802339985	72
0	3454	0.027802339985	72
0	3471	0.028827219999	71
0	3495	0.028882359997	72
0	3511	0.028897499995	72
0	3526	0.028929599993	74
0	3540	0.028943199991	72
0	3555	0.028975299989	74
0	3572	0.028988899987	72
0	3578	0.028995619986	72
0	3596	0.029002339985	72
0	3598	0.029002339985	72
0	3615	0.030027219999	71
0	3639	0.030082359997	72
0	3655	0.030097499995	72
0	3670	0.030129599993	74
0	3684	0.030143199991	72
0	3699	0.030175299989	74
0	3716	0.030188899987	72
0	3722	0.030195619986	72
0	3740	0.030202339985	72
0	3742	0.030202339985	72
0	3759	0.031227219999	71
0	3783	0.031282359997	72
0	3799	0.031297499995	72
0	3814	0.031329599993	74
0	3828	0.031343199991	72
0	3843	0.031375299989	74
0	3860	0.031388899987	72
0	3866	0.031395619986	72
0	3884	0.031402339985	72
0	3886	0.031402339985	72
0	3903	0.032427219999	71
0	3927	0.032482359997	72
0	3943	0.032497499995	72
0	3958	0.032529599993	74
0	3972	0.032543199991	72
0	3987	0.032575299989	74
0	4004	0.032588899987	72
0	4010	0.032595619986	72
0	4028	0.032602339985	72
0	4030	0.032602339985	72
0	4047	0.033627219999	71
0	4071	0.033682359997	72
0	4087	0.033697499995	72
0	4102	0.033729599993	74
0	4116	0.033743199991	72
0	4131	0.033775299989	74
0	4148	0.033788899987	72
0	4154	0.033795619986	72
0	4172	0.033802339985	72
0	4174	0.033802339985	72
0	4191	0.034827219999	71
0	4215	0.034882359997	72
0	4231	0.034897499995	72
0	4246	0.034929599993	74
0	4260	0.034943199991	72
0	4275	0.034975299989	74
0	4292	0.034988899987	72
0	4298	0.034995619986	72
0	4316	0.035002339985	72
0	4318	0.035002339985	72
0	4335	0.036027219999	71
0	4359	0.036082359997	72
0	4375	0.036097499995	72
0	4390	0.036129599993	74
0	4404	0.036143199991	72
0	4419	0.036175299989	74
0	4436	0.036188899987	72
0	4442	0.036195619986	72
0	4460	0.036202339985	72
0	4462	0.036202339985	72
0	4479	0.037227219999	71
0	4503	0.037282359997	72
0	4519	0.037297499995	72
0	4534	0.037329599993	74
0	4548	0.037343199991	72
0	4563	0.037375299989	74
0	4580	0.037388899987	72
0	4586	0.037395619986	72
0	4604	0.037402339985	72
0	4606	0.037402339985	72
0	4623	0.038427219999	71
0	4647	0.038482359997	72
0	4663	0.038497499995	72
0	4678	0.038529599993	74
0	4692	0.038543199991	72
0	4707	0.038575299989	74
0	4724	0.038588899987	72
0	4730	0.038595619986	72
0	4748	0.038602339985	72
0	4750	0.038602339985	72
0	4767	0.039627219999	71
0	4791	0.039682359997	72
0	4807	0.039697499995	72
0	4822	0.039729599993	74
0	4836	0.039743199991	72
0	4851	0.039775299989	74
0	4868	0.039788899987	72
0	4874	0.039795619986	72
0	4892	0.039802339985	72
0	4894	0.039802339985	72
0	4911	0.040827219999	71
0	4935	0.040882359997	72
0	4951	0.040897499995	72
0	4966	0.040929599993	74
0	4980	0.040943199991	72
0	4995	0.040975299989	74
0	5012	0.040988899987	72
0	5018	0.040995619986	72
0	5036	0.041002339985	72
0	5038	0.041002339985	72
0	5055	0.042027219999	71
0	5079	0.042082359997	72
0	5095	0.042097499995	72
0	5110	0.042129599993	74
0	5124	0.042143199991	72
0	5139	0.042175299989	74
0	5156	0.042188899987	72
0	5162	0.042195619986	72
0	5180	0.042202339985	72
0	5182	0.042202339985	72
0	5199	0.043227219999	71
0	5223	0.043282359997	72
0	5239	0.043297499995	72
0	5254	0.043329599993	74
0	5268	0.043343199991	72
0	5283	0.043375299989	74
0	5300	0.043388899987	72
0	5306	0.043395619986	72
0	5324	0.043402339985	72
0	5326	0.043402339985	72
0	5343	0.044427219999	71
0	5367	0.044482359997	72
0	5383	0.044497499995	72
0	5398	0.044529599993	74
0	5412	0.044543199991	72
0	5427	0.044575299989	74
0	5444	0.044588899987	72
0	5450	0.044595619986	72
0	5468	0.044602339985	72
0	5470	0.044602339985	72
0	5487	0.045627219999	71
0	5511	0.045682359997	72
0	5527	0.045697499995	72
0	5542	0.045729599993	74
0	5556	0.045743199991	72
0	5571	0.045775299989	74
0	5588	0.045788899987	72
0	5594	0.045795619986	72
0	5612	0.045802339985	72
0	5614	0.045802339985	72
0	5631	0.046827219999	71
0	5655	0.046882359997	72
0	5671	0.046897499995	72
0	5686	0.046929599993	74
0	5700	0.046943199991	72
0	5715	0.046975299989	74
0	5732	0.046988899987	72
0	5738	0.046995619986	72
0	5756	0.047002339985	72
0	5758	0.047002339985	72
0	5775	0.048027219999	71
0	5799	0.048082359997	72
0	5815	0.048097499995	72
0	5830	0.048129599993	74
0	5844	0.048143199991	72
0	5859	0.048175299989	74
0	5876	0.048188899987	72
0	5882	0.048195619986	72
0	5900	0.048202339985	72
0	5902	0.048202339985	72
0	5919	0.049227219999	71
0	5943	0.049282359997	72
0	5959	0.049297499995	72
0	5974	0.049329599993	74
0	5988	0.049343199991	72
0	6003	0.049375299989	74
0	6020	0.049388899987	72
0	6026	0.049395619986	72
0	6044	0.049402339985	72
0	6046	0.049402339985	72
0	6063	0.050427219999	71
0	6087	0.050482359997	72
0	6103	0.050497499995	72
0	6118	0.050529599993	74
0	6132	0.050543199991	72
0	6147	0.050575299989	74
0	6164	0.050588899987	72
0	6170	0.050595619986	72
0	6188	0.050602339985	72
0	6190	0.050602339985	72
0	6207	0.051627219999	71
0	6231	0.051682359997	72
0	6247	0.051697499995	72
0	6262	0.051729599993	74
0	6276	0.051743199991	72
0	6291	0.051775299989	74
0	6308	0.051788899987	72
0	6314	0.051795619986	72
0	6332	0.051802339985	72
0	6334	0.051802339985	72
0	6351	0.052827219999	71
0	6375	0.052882359997	72
0	6391	0.052897499995	72
0	6406	0.052929599993	74
0	6420	0.052943199991	72
0	6435	0.052975299989	74
0	6452	0.052988899987	72
0	6458	0.052995619986	72
0	6476	0.053002339985	72
0	6478	0.053002339985	72
0	6495	0.054027219999	71
0	6519	0.054082359997	72
0	6535	0.054097499995	72
0	6550	0.054129599993	74
0	6564	0.054143199991	72
0	6579	0.054175299989	74
0	6596	0.054188899987	72
0	6602	0.054195619986	72
0	6620	0.054202339985	72
0	6622	0.054202339985	72
0	6639	0.055227219999	71
0	6663	0.055282359997	72
0	6679	0.055297499995	72
0	6694	0.055329599993	74
0	6708	0.055343199991	72
0	6723	0.055375299989	74
0	6740	0.055388899987	72
0	6746	0.055395619986	72
0	6764	0.055402339985	72
0	6766	0.055402339985	72
0	6783	0.056427219999	71
0	6807	0.056482359997	72
0	6823	0.056497499995	72
0	6838	0.056529599993	74
0	6852	0.056543199991	72
0	6867	0.056575299989	74
0	6884	0.056588899987	72
0	6890	0.056595619986	72
0	6908	0.056602339985	72
0	6910	0.056602339985	72
0	6927	0.057627219999	71
0	6951	0.057682359997	72
0	6967	0.057697499995	72
0	6982	0.057729599993	74
0	6996	0.057743199991	72
0	7011	0.057775299989	74
0	7028	0.057788899987	72
0	7034	0.057795619986	72
0	7052	0.057802339985	72
0	7054	0.057802339985	72
0	7071	0.058827219999	71
0	7095	0.058882359997	72
0	7111	0.058897499995	72
0	7126	0.058929599993	74
0	7140	0.058943199991	72
0	7155	0.058975299989	74
0	7172	0.058988899987	72
0	7178	0.058995619986	72
0	7196	0.059002339985	72
0	7198	0.059002339985	72
0	7215	0.060027219999	71
0	7239	0.060082359997	72
0	7255	0.060097499995	72
0	7270	0.060129599993	74
0	7284	0.060143199991	72
0	7299	0.060175299989	74
0	7316	0.060188899987	72
0	7322	0.060195619986	72
0	7340	0.060202339985	72
0	7342	0.060202339985	72
0	7359	0.061227219999	71
0	7383	0.061282359997	72
0	7399	0.061297499995	72
0	7414	0.061329599993	74
0	7428	0.061343199991	72
0	7443	0.061375299989	74
0	7460	0.061388899987	72
0	7466	0.061395619986	72
0	7484	0.061402339985	72
0	7486	0.061402339985	72
0	7503	0.062427219999	71
0	7527	0.062482359997	72
0	7543	0.062497499995	72
0	7558	0.062529599993	74
0	7572	0.062543199991	72
0	7587	0.062575299989	74
0	7604	0.062588899987	72
0	7610	0.062595619986	72
0	7628	0.062602339985	72
0	7630	0.062602339985	72
0	7647	0.063627219999	71
0	7671	0.063682359997	72
0	7687	0.063697499995	72
0	7702	0.063729599993	74
0	7716	0.063743199991	72
0	7731	0.063775299989	74
0	7748	0.063788899987	72
0	7754	0.063795619986	72
0	7772	0.063802339985	72
0	7774	0.063802339985	72
0	7791	0.064827219999	71
0	7815	0.064882359997	72
0	7831	0.064897499995	72
0	7846	0.064929599993	74
0	7860	0.064943199991	72
0	7875	0.064975299989	74
0	7892	0.064988899987	72
0	7898	0.064995619986	72
0	7916	0.065002339985	72
0	7918	0.065002339985	72
0	7935	0.066027219999	71
0	7959	0.066082359997	72
0	7975	0.066097499995	72
0	7990	0.066129599993	74
0	8004	0.066143199991	72
0	8019	0.066175299989	74
0	8036	0.066188899987	72
0	8042	0.066195619986	72
0	8060	0.066202339985	72
0	8062	0.066202339985	72
0	8079	0.067227219999	71
0	8103	0.067282359997	72
0	8119	0.067297499995	72
0	8134	0.067329599993	74
0	8148	0.067343199991	72
0	8163	0.067375299989	74
0	8180	0.067388899987	72
0	8186	0.067395619986	72
0	8204	0.067402339985	72
0	8206	0.067402339985	72
0	8223	0.068427219999	71
0	8247	0.068482359997	72
0	8263	0.068497499995	72
0	8278	0.068529599993	74
0	8292	0.068543199991	72
0	8307	0.068575299989	74
0	8324	0.068588899987	72
0	8330	0.068595619986	72
0	8348	0.068602339985	72
0	8350	0.068602339985	72
0	8367	0.069627219999	71
0	8391	0.069682359997	72
0	8407	0.069697499995	72
0	8422	0.069729599993	74
0	8436	0.069743199991	72
0	8451	0.069775299989	74
0	8468	0.069788899987	72
0	8474	0.069795619986	72
0	8492	0.069802339985	72
0	8494	0.069802339985	72
0	8511	0.070827219999	71
0	8535	0.070882359997	72
0	8551	0.070897499995	72
0	8566	0.070929599993	74
0	8580	0.070943199991	72
0	8595	0.070975299989	74
0	8612	0.070988899987	72
0	8618	0.070995619986	72
0	8636	0.071002339985	72
0	8638	0.071002339985	72
0	8655	0.072027219999	71
0	8679	0.072082359997	72
0	8695	0.072097499995	72
0	8710	0.072129599993	74
0	8724	0.072143199991	72
0	8739	0.072175299989	74
0	8756	0.072188899987	72
0	8762	0.072195619986	72
0	8780	0.072202339985	72
0	8782	0.072202339985	72
0	8799	0.073227219999	71
0	8823	0.073282359997	72
0	8839	0.073297499995	72
0	8854	0.073329599993	74
0	8868	0.073343199991	72
0	8883	0.073375299989	74
0	8900	0.073388899987	72
0	8906	0.073395619986	72
0	8924	0.073402339985	72
0	8926	0.073402339985	72
0	8943	0.074427219999	71
0	8967	0.074482359997	72
0	8983	0.074497499995	72
0	8998	0.074529599993	74
0	9012	0.074543199991	72
0	9027	0.074575299989	74
0	9044	0.074588899987	72
0	9050	0.074595619986	72
0	9068	0.074602339985	72
0	9070	0.074602339985	72
0	9087	0.075627219999	71
0	9111	0.075682359997	72
0	9127	0.075697499995	72
0	9142	0.075729599993	74
0	9156	0.075743199991	72
0	9171	0.075775299989	74
0	9188	0.075788899987	72
0	9194	0.075795619986	72
0	9212	0.075802339985	72
0	9214	0.075802339985	72
0	9231	0.076827219999	71
0	9255	0.076882359997	72
0	9271	0.076897499995	72
0	9286	0.076929599993	74
0	9300	0.076943199991	72
0	9315	0.076975299989	74
0	9332	0.076988899987	72
0	9338	0.076995619986	72
0	9356	0.077002339985	72
0	9358	0.077002339985	72
0	9375	0.078027219999	71
0	9399	0.078082359997	72
0	9415	0.078097499995	72
0	9430	0.078129599993	74
0	9444	0.078143199991	72
0	9459	0.078175299989	74
0	9476	0.078188899987	72
0	9482	0.078195619986	72
0	9500	0.078202339985	72
0	9502	0.078202339985	72
0	9519	0.079227219999	71
0	9543	0.079282359997	72
0	9559	0.079297499995	72
0	9574	0.079329599993	74
0	9588	0.079343199991	72
0	9603	0.079375299989	74
0	9620	0.079388899987	72
0	9626	0.079395619986	72
0	9644	0.079402339985	72
0	9646	0.079402339985	72
0	9663	0.080427219999	71
0	9687	0.080482359997	72
0	9703	0.080497499995	72
0	9718	0.080529599993	74
0	9732	0.080543199991	72
0	9747	0.080575299989	74
0	9764	0.080588899987	72
0	9770	0.080595619986	72
0	9788	0.080602339985	72
0	9790	0.080602339985	72
0	9807	0.081627219999	71
0	9831	0.081682359997	72
0	9847	0.081697499995	72
0	9862	0.081729599993	74
0	9876	0.081743199991	72
0	9891	0.081775299989	74
0	9908	0.081788899987	72
0	9914	0.081795619986	72
0	9932	0.081802339985	72
0	9934	0.081802339985	72
0	9951	0.082827219999	71
0	9975	0.082882359997	72
0	9991	0.082897499995	72
0	10006	0.082929599993	74
0	10020	0.082943199991	72
0	10035	0.082975299989	74
0	10052	0.082988899987	72
0	10058	0.082995619986	72
0	10076	0.083002339985	72
0	10078	0.083002339985	72
0	10095	0.084027219999	71
0	10119	0.084082359997	72
0	10135	0.084097499995	72
0	10150	0.084129599993	74
0	10164	0.084143199991	72
0	10179	0.084175299989	74
0	10196	0.084188899987	72
0	10202	0.084195619986	72
0	10220	0.084202339985	72
0	10222	0.084202339985	72
0	10239	0.085227219999	71
0	10263	0.085282359997	72
0	10279	0.085297499995	72
0	10294	0.085329599993	74
0	10308	0.085343199991	72
0	10323	0.085375299989	74
0	10340	0.085388899987	72
0	10346	0.085395619986	72
0	10364	0.085402339985	72
0	10366	0.085402339985	72
0	10383	0.086427219999	71
0	10407	0.086482359997	72
0	10423	0.086497499995	72
0	10438	0.086529599993	74
0	10452	0.086543199991	72
0	10467	0.086575299989	74
0	10484	0.086588899987	72
0	10490	0.086595619986	72
0	10508	0.086602339985	72
0	10510	0.086602339985	72
0	10527	0.087627219999	71
0	10551	0.087682359997	72
0	10567	0.087697499995	72
0	10582	0.087729599993	74
0	10596	0.087743199991	72
0	10611	0.087775299989	74
0	10628	0.087788899987	72
0	10634	0.087795619986	72
0	10652	0.087802339985	72
0	10654	0.087802339985	72
0	10671	0.088827219999	71
0	10695	0.088882359997	72
0	10711	0.088897499995	72
0	10726	0.088929599993	74
0	10740	0.088943199991	72
0	10755	0.088975299989	74
0	10772	0.088988899987	72
0	10778	0.088995619986	72
0	10796	0.089002339985	72
0	10798	0.089002339985	72
0	10815	0.090027219999	71
0	10839	0.090082359997	72
0	10855	0.090097499995	72
0	10870	0.090129599993	74
0	10884	0.090143199991	72
0	10899	0.090175299989	74
0	10916	0.090188899987	72
0	10922	0.090195619986	72
0	10940	0.090202339985	72
0	10942	0.090202339985	72
0	10959	0.091227219999	71
0	10983	0.091282359997	72
0	10999	0.091297499995	72
0	11014	0.091329599993	74
0	11028	0.091343199991	72
0	11043	0.091375299989	74
0	11060	0.091388899987	72
0	11066	0.091395619986	72
0	11084	0.091402339985	72
0	11086	0.091402339985	72
0	11103	0.092427219999	71
0	11127	0.092482359997	72
0	11143	0.092497499995	72
0	11158	0.092529599993	74
0	11172	0.092543199991	72
0	11187	0.092575299989	74
0	11204	0.092588899987	72
0	11210	0.092595619986	72
0	11228	0.092602339985	72
0	11230	0.092602339985	72
0	11247	0.093627219999	71
0	11271	0.093682359997	72
0	11287	0.093697499995	72
0	11302	0.093729599993	74
0	11316	0.093743199991	72
0	11331	0.093775299989	74
0	11348	0.093788899987	72
0	11354	0.093795619986	72
0	11372	0.093802339985	72
0	11374	0.093802339985	72
0	11391	0.094827219999	71
0	11415	0.094882359997	72
0	11431	0.094897499995	72
0	11446	0.094929599993	74
0	11460	0.094943199991	72
0	11475	0.094975299989	74
0	11492	0.094988899987	72
0	11498	0.094995619986	72
0	11516	0.095002339985	72
0	11518	0.095002339985	72
0	11535	0.096027219999	71
0	11559	0.096082359997	72
0	11575	0.096097499995	72
0	11590	0.096129599993	74
0	11604	0.096143199991	72
0	11619	0.096175299989	74
0	11636	0.096188899987	72
0	11642	0.096195619986	72
0	11660	0.096202339985	72
0	11662	0.096202339985	72
0	11679	0.097227219999	71
0	11703	0.097282359997	72
0	11719	0.097297499995	72
0	11734	0.097329599993	74
0	11748	0.097343199991	72
0	11763	0.097375299989	74
0	11780	0.097388899987	72
0	11786	0.097395619986	72
0	11804	0.097402339985	72
0	11806	0.097402339985	72
0	11823	0.098427219999	71
0	11847	0.098482359997	72
0	11863	0.098497499995	72
0	11878	0.098529599993	74
0	11892	0.098543199991	72
0	11907	0.098575299989	74
0	11924	0.098588899987	72
0	11930	0.098595619986	72
0	11948	0.098602339985	72
0	11950	0.098602339985	72
0	11967	0.099627219999	71
0	11991	0.099682359997	72
0	12007	0.099697499995	72
0	12022	0.099729599993	74
0	12036	0.099743199991	72
0	12051	0.099775299989	74
0	12068	0.099788899987	72
0	12074	0.099795619986	72
0	12092	0.099802339985	72
0	12094	0.099802339985	72
0	12111	0.100827219999	71
0	12135	0.100882359997	72
0	12151	0.100897499995	72
0	12166	0.100929599993	74
0	12180	0.100943199991	72
0	12195	0.100975299989	74
0	12212	0.100988899987	72
0	12218	0.100995619986	72
0	12236	0.101002339985	72
0	12238	0.101002339985	72
0	12255	0.102027219999	71
0	12279	0.102082359997	72
0	12295	0.102097499995	72
0	12310	0.102129599993	74
0	12324	0.102143199991	72
0	12339	0.102175299989	74
0	12356	0.102188899987	72
0	12362	0.102195619986	72
0	12380	0.102202339985	72
0	12382	0.102202339985	72
0	12399	0.103227219999	71
0	12423	0.103282359997	72
0	12439	0.103297499995	72
0	12454	0.103329599993	74
0	12468	0.103343199991	72
0	12483	0.103375299989	74
0	12500	0.103388899987	72
0	12506	0.103395619986	72
0	12524	0.103402339985	72
0	12526	0.103402339985	72
0	12543	0.104427219999	71
0	12567	0.104482359997	72
0	12583	0.104497499995	72
0	12598	0.104529599993	74
0	12612	0.104543199991	72
0	12627	0.104575299989	74
0	12644	0.104588899987	72
0	12650	0.104595619986	72
0	12668	0.104602339985	72
0	12670	0.104602339985	72
0	12687	0.105627219999	71
0	12711	0.105682359997	72
0	12727	0.105697499995	72
0	12742	0.105729599993	74
0	12756	0.105743199991	72
0	12771	0.105775299989	74
0	12788	0.105788899987	72
0	12794	0.105795619986	72
0	12812	0.105802339985	72
0	12814	0.105802339985	72
0	12831	0.106827219999	71
0	12855	0.106882359997	72
0	12871	0.106897499995	72
0	12886	0.106929599993	74
0	12900	0.106943199991	72
0	12915	0.106975299989	74
0	12932	0.106988899987	72
0	12938	0.106995619986	72
0	12956	0.107002339985	72
0	12958	0.107002339985	72
0	12975	0.108027219999	71
0	12999	0.108082359997	72
0	13015	0.108097499995	72
0	13030	0.108129599993	74
0	13044	0.108143199991	72
0	13059	0.108175299989	74
0	13076	0.108188899987	72
0	13082	0.108195619986	72
0	13100	0.108202339985	72
0	13102	0.108202339985	72
0	13119	0.109227219999	71
0	13143	0.109282359997	72
0	13159	0.109297499995	72
0	13174	0.109329599993	74
0	13188	0.109343199991	72
0	13203	0.109375299989	74
0	13220	0.109388899987	72
0	13226	0.109395619986	72
0	13244	0.109402339985	72
0	13246	0.109402339985	72
0	13263	0.110427219999	71
0	13287	0.110482359997	72
0	13303	0.110497499995	72
0	13318	0.110529599993	74
0	13332	0.110543199991	72
0	13347	0.110575299989	74
0	13364	0.110588899987	72
0	13370	0.110595619986	72
0	13388	0.110602339985	72
0	13390	0.110602339985	72
0	13407	0.111627219999	71
0	13431	0.111682359997	72
0	13447	0.111697499995	72
0	13462	0.111729599993	74
0	13476	0.111743199991	72
0	13491	0.111775299989	74
0	13508	0.111788899987	72
0	13514	0.111795619986	72
0	13532	0.111802339985	72
0	13534	0.111802339985	72
0	13551	0.112827219999	71
0	13575	0.112882359997	72
0	13591	0.112897499995	72
0	13606	0.112929599993	74
0	13620	0.112943199991	72
0	13635	0.112975299989	74
0	13652	0.112988899987	72
0	13658	0.112995619986	72
0	13676	0.113002339985	72
0	13678	0.113002339985	72
0	13695	0.114027219999	71