file 6928981 1395329284                                         
version 2
run eee2_100M-0-20140320-16:27:59-77077
attr configname eee2_100M
attr datetime 20140320-16:27:59
attr experiment eee2_100M
attr inifile EPL_tii2014.ini
attr iterationvars ""
attr iterationvars2 $repetition=0
attr measurement ""
attr network eeepowerlink.networks.EPL_tii2014
attr processid 77077
attr repetition 0
attr replication #0
attr resultdir results
attr runnumber 0
attr seedset 0

vector 545  EPL_tii2014.PLC.lpi_client  "EEE-Link Power"  ETV
vector 543  EPL_tii2014.PLC.MN  "EEE-Link Power"  ETV
vector 546  EPL_tii2014.PLC.lpi_client  "NoEEE-Link Power"  ETV
vector 544  EPL_tii2014.PLC.MN  "NoEEE-Link Power"  ETV
vector 547  EPL_tii2014.Subnet1_Host[0].lpi_client  "EEE-Link Power"  ETV
vector 548  EPL_tii2014.Subnet1_Host[0].lpi_client  "NoEEE-Link Power"  ETV
vector 549  EPL_tii2014.Subnet1_Host[1].lpi_client  "EEE-Link Power"  ETV
vector 550  EPL_tii2014.Subnet1_Host[1].lpi_client  "NoEEE-Link Power"  ETV
vector 551  EPL_tii2014.Subnet1_Host[2].lpi_client  "EEE-Link Power"  ETV
vector 552  EPL_tii2014.Subnet1_Host[2].lpi_client  "NoEEE-Link Power"  ETV
vector 553  EPL_tii2014.Subnet1_Host[3].lpi_client  "EEE-Link Power"  ETV
vector 554  EPL_tii2014.Subnet1_Host[3].lpi_client  "NoEEE-Link Power"  ETV
vector 555  EPL_tii2014.Subnet1_Host[4].lpi_client  "EEE-Link Power"  ETV
vector 556  EPL_tii2014.Subnet1_Host[4].lpi_client  "NoEEE-Link Power"  ETV
vector 557  EPL_tii2014.Subnet1_Host[5].lpi_client  "EEE-Link Power"  ETV
vector 558  EPL_tii2014.Subnet1_Host[5].lpi_client  "NoEEE-Link Power"  ETV
vector 559  EPL_tii2014.Subnet1_Host[6].lpi_client  "EEE-Link Power"  ETV
vector 560  EPL_tii2014.Subnet1_Host[6].lpi_client  "NoEEE-Link Power"  ETV
vector 561  EPL_tii2014.Subnet1_Host[7].lpi_client  "EEE-Link Power"  ETV
vector 562  EPL_tii2014.Subnet1_Host[7].lpi_client  "NoEEE-Link Power"  ETV
vector 563  EPL_tii2014.Subnet1_Host[8].lpi_client  "EEE-Link Power"  ETV
vector 564  EPL_tii2014.Subnet1_Host[8].lpi_client  "NoEEE-Link Power"  ETV
vector 565  EPL_tii2014.Subnet1_Host[9].lpi_client  "EEE-Link Power"  ETV
vector 566  EPL_tii2014.Subnet1_Host[9].lpi_client  "NoEEE-Link Power"  ETV
vector 567  EPL_tii2014.Subnet1_Host[10].lpi_client  "EEE-Link Power"  ETV
vector 568  EPL_tii2014.Subnet1_Host[10].lpi_client  "NoEEE-Link Power"  ETV
vector 569  EPL_tii2014.Subnet1_Host[11].lpi_client  "EEE-Link Power"  ETV
vector 570  EPL_tii2014.Subnet1_Host[11].lpi_client  "NoEEE-Link Power"  ETV
vector 571  EPL_tii2014.Subnet1_Host[12].lpi_client  "EEE-Link Power"  ETV
vector 572  EPL_tii2014.Subnet1_Host[12].lpi_client  "NoEEE-Link Power"  ETV
vector 573  EPL_tii2014.Subnet1_Host[13].lpi_client  "EEE-Link Power"  ETV
vector 574  EPL_tii2014.Subnet1_Host[13].lpi_client  "NoEEE-Link Power"  ETV
vector 575  EPL_tii2014.Subnet1_Host[14].lpi_client  "EEE-Link Power"  ETV
vector 576  EPL_tii2014.Subnet1_Host[14].lpi_client  "NoEEE-Link Power"  ETV
vector 577  EPL_tii2014.Subnet1_Host[15].lpi_client  "EEE-Link Power"  ETV
vector 578  EPL_tii2014.Subnet1_Host[15].lpi_client  "NoEEE-Link Power"  ETV
vector 579  EPL_tii2014.Subnet1_Host[16].lpi_client  "EEE-Link Power"  ETV
vector 580  EPL_tii2014.Subnet1_Host[16].lpi_client  "NoEEE-Link Power"  ETV
vector 581  EPL_tii2014.Subnet1_Host[17].lpi_client  "EEE-Link Power"  ETV
vector 582  EPL_tii2014.Subnet1_Host[17].lpi_client  "NoEEE-Link Power"  ETV
vector 583  EPL_tii2014.Subnet1_Host[18].lpi_client  "EEE-Link Power"  ETV
vector 584  EPL_tii2014.Subnet1_Host[18].lpi_client  "NoEEE-Link Power"  ETV
vector 585  EPL_tii2014.Subnet1_Host[19].lpi_client  "EEE-Link Power"  ETV
vector 586  EPL_tii2014.Subnet1_Host[19].lpi_client  "NoEEE-Link Power"  ETV
vector 587  EPL_tii2014.Subnet2_Host[0].lpi_client  "EEE-Link Power"  ETV
vector 588  EPL_tii2014.Subnet2_Host[0].lpi_client  "NoEEE-Link Power"  ETV
vector 589  EPL_tii2014.Subnet2_Host[1].lpi_client  "EEE-Link Power"  ETV
vector 590  EPL_tii2014.Subnet2_Host[1].lpi_client  "NoEEE-Link Power"  ETV
vector 591  EPL_tii2014.Subnet2_Host[2].lpi_client  "EEE-Link Power"  ETV
vector 592  EPL_tii2014.Subnet2_Host[2].lpi_client  "NoEEE-Link Power"  ETV
vector 593  EPL_tii2014.Subnet2_Host[3].lpi_client  "EEE-Link Power"  ETV
vector 594  EPL_tii2014.Subnet2_Host[3].lpi_client  "NoEEE-Link Power"  ETV
vector 595  EPL_tii2014.Subnet2_Host[4].lpi_client  "EEE-Link Power"  ETV
vector 596  EPL_tii2014.Subnet2_Host[4].lpi_client  "NoEEE-Link Power"  ETV
vector 597  EPL_tii2014.Subnet2_Host[5].lpi_client  "EEE-Link Power"  ETV
vector 598  EPL_tii2014.Subnet2_Host[5].lpi_client  "NoEEE-Link Power"  ETV
vector 599  EPL_tii2014.Subnet2_Host[6].lpi_client  "EEE-Link Power"  ETV
vector 600  EPL_tii2014.Subnet2_Host[6].lpi_client  "NoEEE-Link Power"  ETV
vector 601  EPL_tii2014.Subnet2_Host[7].lpi_client  "EEE-Link Power"  ETV
vector 602  EPL_tii2014.Subnet2_Host[7].lpi_client  "NoEEE-Link Power"  ETV
vector 603  EPL_tii2014.Subnet2_Host[8].lpi_client  "EEE-Link Power"  ETV
vector 604  EPL_tii2014.Subnet2_Host[8].lpi_client  "NoEEE-Link Power"  ETV
vector 605  EPL_tii2014.Subnet2_Host[9].lpi_client  "EEE-Link Power"  ETV
vector 606  EPL_tii2014.Subnet2_Host[9].lpi_client  "NoEEE-Link Power"  ETV
vector 607  EPL_tii2014.DC_CN1.lpi_client  "EEE-Link Power"  ETV
vector 608  EPL_tii2014.DC_CN1.lpi_client  "NoEEE-Link Power"  ETV
vector 609  EPL_tii2014.DC_CN2.lpi_client  "EEE-Link Power"  ETV
vector 610  EPL_tii2014.DC_CN2.lpi_client  "NoEEE-Link Power"  ETV
vector 533  EPL_tii2014.switch0  "EEE-Link Power"  ETV
vector 534  EPL_tii2014.switch0  "NoEEE-Link Power"  ETV
vector 535  EPL_tii2014.switch1  "EEE-Link Power"  ETV
vector 536  EPL_tii2014.switch1  "NoEEE-Link Power"  ETV
vector 537  EPL_tii2014.switch2  "EEE-Link Power"  ETV
vector 538  EPL_tii2014.switch2  "NoEEE-Link Power"  ETV
vector 539  EPL_tii2014.DC_CN1.internalHub_EEE  "EEE-Link Power"  ETV
vector 540  EPL_tii2014.DC_CN1.internalHub_EEE  "NoEEE-Link Power"  ETV
vector 541  EPL_tii2014.DC_CN2.internalHub_EEE  "EEE-Link Power"  ETV
vector 542  EPL_tii2014.DC_CN2.internalHub_EEE  "NoEEE-Link Power"  ETV
vector 17  EPL_tii2014.PLC.lpi_client  linkLPI_time:vector  ETV
attr source  lpi_time
vector 5  EPL_tii2014.PLC.llc  encapPk:vector(packetBytes)  ETV
attr interpolationmode  none
attr source  encapPk
attr title  "packets encapsulated, vector(packetBytes)"
vector 13  EPL_tii2014.PLC.mac  rxPkFromHL:vector(packetBytes)  ETV
attr interpolationmode  none
attr source  rxPkFromHL
attr title  "packet bytes from higher layer, vector(packetBytes)"
vector 0  EPL_tii2014.switch0  pk:vector(packetBytes)  ETV
attr interpolationmode  none
attr source  pk
attr title  "packets, vector(packetBytes)"
vector 8  EPL_tii2014.PLC.mac  txPk:vector(packetBytes)  ETV
attr interpolationmode  none
attr source  txPk
attr title  "packets transmitted, vector(packetBytes)"
vector 1  EPL_tii2014.switch1  pk:vector(packetBytes)  ETV
attr interpolationmode  none
attr source  pk
attr title  "packets, vector(packetBytes)"
vector 2  EPL_tii2014.switch2  pk:vector(packetBytes)  ETV
attr interpolationmode  none
attr source  pk
attr title  "packets, vector(packetBytes)"
vector 515  EPL_tii2014.DC_CN1.internalHub_EEE  pk:vector(packetBytes)  ETV
attr interpolationmode  none
attr source  pk
attr title  "packets, vector(packetBytes)"
vector 505  EPL_tii2014.DC_CN1.mac  rxPkOk:vector(packetBytes)  ETV
attr interpolationmode  none
attr source  rxPkOk
attr title  "packets received OK, vector(packetBytes)"
vector 506  EPL_tii2014.DC_CN1.mac  passedUpPk:vector(packetBytes)  ETV
attr interpolationmode  none
attr source  packetSentToUpper
attr title  "packets passed to higher layer, vector(packetBytes)"
vector 502  EPL_tii2014.DC_CN1.llc  decapPk:vector(packetBytes)  ETV
attr interpolationmode  none
attr source  decapPk
attr title  "packets decapsulated, vector(packetBytes)"
vector 513  EPL_tii2014.DC_CN1.lpi_client  linkLPI_time:vector  ETV
attr source  lpi_time
vector 532  EPL_tii2014.DC_CN2.internalHub_EEE  pk:vector(packetBytes)  ETV
attr interpolationmode  none
attr source  pk
attr title  "packets, vector(packetBytes)"
vector 25  EPL_tii2014.Subnet1_Host[0].mac  rxPkOk:vector(packetBytes)  ETV
attr interpolationmode  none
attr source  rxPkOk
attr title  "packets received OK, vector(packetBytes)"
vector 26  EPL_tii2014.Subnet1_Host[0].mac  passedUpPk:vector(packetBytes)  ETV
attr interpolationmode  none
attr source  packetSentToUpper
attr title  "packets passed to higher layer, vector(packetBytes)"
vector 41  EPL_tii2014.Subnet1_Host[1].mac  rxPkOk:vector(packetBytes)  ETV
attr interpolationmode  none
attr source  rxPkOk
attr title  "packets received OK, vector(packetBytes)"
vector 42  EPL_tii2014.Subnet1_Host[1].mac  passedUpPk:vector(packetBytes)  ETV
attr interpolationmode  none
attr source  packetSentToUpper
attr title  "packets passed to higher layer, vector(packetBytes)"
vector 57  EPL_tii2014.Subnet1_Host[2].mac  rxPkOk:vector(packetBytes)  ETV
attr interpolationmode  none
attr source  rxPkOk
attr title  "packets received OK, vector(packetBytes)"
vector 58  EPL_tii2014.Subnet1_Host[2].mac  passedUpPk:vector(packetBytes)  ETV
attr interpolationmode  none
attr source  packetSentToUpper
attr title  "packets passed to higher layer, vector(packetBytes)"
vector 73  EPL_tii2014.Subnet1_Host[3].mac  rxPkOk:vector(packetBytes)  ETV
attr interpolationmode  none
attr source  rxPkOk
attr title  "packets received OK, vector(packetBytes)"
vector 74  EPL_tii2014.Subnet1_Host[3].mac  passedUpPk:vector(packetBytes)  ETV
attr interpolationmode  none
attr source  packetSentToUpper
attr title  "packets passed to higher layer, vector(packetBytes)"
vector 89  EPL_tii2014.Subnet1_Host[4].mac  rxPkOk:vector(packetBytes)  ETV
attr interpolationmode  none
attr source  rxPkOk
attr title  "packets received OK, vector(packetBytes)"
vector 90  EPL_tii2014.Subnet1_Host[4].mac  passedUpPk:vector(packetBytes)  ETV
attr interpolationmode  none
attr source  packetSentToUpper
attr title  "packets passed to higher layer, vector(packetBytes)"
vector 105  EPL_tii2014.Subnet1_Host[5].mac  rxPkOk:vector(packetBytes)  ETV
attr interpolationmode  none
attr source  rxPkOk
attr title  "packets received OK, vector(packetBytes)"
vector 106  EPL_tii2014.Subnet1_Host[5].mac  passedUpPk:vector(packetBytes)  ETV
attr interpolationmode  none
attr source  packetSentToUpper
attr title  "packets passed to higher layer, vector(packetBytes)"
vector 121  EPL_tii2014.Subnet1_Host[6].mac  rxPkOk:vector(packetBytes)  ETV
attr interpolationmode  none
attr source  rxPkOk
attr title  "packets received OK, vector(packetBytes)"
vector 122  EPL_tii2014.Subnet1_Host[6].mac  passedUpPk:vector(packetBytes)  ETV
attr interpolationmode  none
attr source  packetSentToUpper
attr title  "packets passed to higher layer, vector(packetBytes)"
vector 137  EPL_tii2014.Subnet1_Host[7].mac  rxPkOk:vector(packetBytes)  ETV
attr interpolationmode  none
attr source  rxPkOk
attr title  "packets received OK, vector(packetBytes)"
vector 138  EPL_tii2014.Subnet1_Host[7].mac  passedUpPk:vector(packetBytes)  ETV
attr interpolationmode  none
attr source  packetSentToUpper
attr title  "packets passed to higher layer, vector(packetBytes)"
vector 153  EPL_tii2014.Subnet1_Host[8].mac  rxPkOk:vector(packetBytes)  ETV
attr interpolationmode  none
attr source  rxPkOk
attr title  "packets received OK, vector(packetBytes)"
vector 154  EPL_tii2014.Subnet1_Host[8].mac  passedUpPk:vector(packetBytes)  ETV
attr interpolationmode  none
attr source  packetSentToUpper
attr title  "packets passed to higher layer, vector(packetBytes)"
vector 169  EPL_tii2014.Subnet1_Host[9].mac  rxPkOk:vector(packetBytes)  ETV
attr interpolationmode  none
attr source  rxPkOk
attr title  "packets received OK, vector(packetBytes)"
vector 170  EPL_tii2014.Subnet1_Host[9].mac  passedUpPk:vector(packetBytes)  ETV
attr interpolationmode  none
attr source  packetSentToUpper
attr title  "packets passed to higher layer, vector(packetBytes)"
vector 185  EPL_tii2014.Subnet1_Host[10].mac  rxPkOk:vector(packetBytes)  ETV
attr interpolationmode  none
attr source  rxPkOk
attr title  "packets received OK, vector(packetBytes)"
vector 186  EPL_tii2014.Subnet1_Host[10].mac  passedUpPk:vector(packetBytes)  ETV
attr interpolationmode  none
attr source  packetSentToUpper
attr title  "packets passed to higher layer, vector(packetBytes)"
vector 201  EPL_tii2014.Subnet1_Host[11].mac  rxPkOk:vector(packetBytes)  ETV
attr interpolationmode  none
attr source  rxPkOk
attr title  "packets received OK, vector(packetBytes)"
vector 202  EPL_tii2014.Subnet1_Host[11].mac  passedUpPk:vector(packetBytes)  ETV
attr interpolationmode  none
attr source  packetSentToUpper
attr title  "packets passed to higher layer, vector(packetBytes)"
vector 217  EPL_tii2014.Subnet1_Host[12].mac  rxPkOk:vector(packetBytes)  ETV
attr interpolationmode  none
attr source  rxPkOk
attr title  "packets received OK, vector(packetBytes)"
vector 218  EPL_tii2014.Subnet1_Host[12].mac  passedUpPk:vector(packetBytes)  ETV
attr interpolationmode  none
attr source  packetSentToUpper
attr title  "packets passed to higher layer, vector(packetBytes)"
vector 233  EPL_tii2014.Subnet1_Host[13].mac  rxPkOk:vector(packetBytes)  ETV
attr interpolationmode  none
attr source  rxPkOk
attr title  "packets received OK, vector(packetBytes)"
vector 234  EPL_tii2014.Subnet1_Host[13].mac  passedUpPk:vector(packetBytes)  ETV
attr interpolationmode  none
attr source  packetSentToUpper
attr title  "packets passed to higher layer, vector(packetBytes)"
vector 249  EPL_tii2014.Subnet1_Host[14].mac  rxPkOk:vector(packetBytes)  ETV
attr interpolationmode  none
attr source  rxPkOk
attr title  "packets received OK, vector(packetBytes)"
vector 250  EPL_tii2014.Subnet1_Host[14].mac  passedUpPk:vector(packetBytes)  ETV
attr interpolationmode  none
attr source  packetSentToUpper
attr title  "packets passed to higher layer, vector(packetBytes)"
vector 265  EPL_tii2014.Subnet1_Host[15].mac  rxPkOk:vector(packetBytes)  ETV
attr interpolationmode  none
attr source  rxPkOk
attr title  "packets received OK, vector(packetBytes)"
vector 266  EPL_tii2014.Subnet1_Host[15].mac  passedUpPk:vector(packetBytes)  ETV
attr interpolationmode  none
attr source  packetSentToUpper
attr title  "packets passed to higher layer, vector(packetBytes)"
vector 281  EPL_tii2014.Subnet1_Host[16].mac  rxPkOk:vector(packetBytes)  ETV
attr interpolationmode  none
attr source  rxPkOk
attr title  "packets received OK, vector(packetBytes)"
vector 282  EPL_tii2014.Subnet1_Host[16].mac  passedUpPk:vector(packetBytes)  ETV
attr interpolationmode  none
attr source  packetSentToUpper
attr title  "packets passed to higher layer, vector(packetBytes)"
vector 297  EPL_tii2014.Subnet1_Host[17].mac  rxPkOk:vector(packetBytes)  ETV
attr interpolationmode  none
attr source  rxPkOk
attr title  "packets received OK, vector(packetBytes)"
vector 298  EPL_tii2014.Subnet1_Host[17].mac  passedUpPk:vector(packetBytes)  ETV
attr interpolationmode  none
attr source  packetSentToUpper
attr title  "packets passed to higher layer, vector(packetBytes)"
vector 313  EPL_tii2014.Subnet1_Host[18].mac  rxPkOk:vector(packetBytes)  ETV
attr interpolationmode  none
attr source  rxPkOk
attr title  "packets received OK, vector(packetBytes)"
vector 314  EPL_tii2014.Subnet1_Host[18].mac  passedUpPk:vector(packetBytes)  ETV
attr interpolationmode  none
attr source  packetSentToUpper
attr title  "packets passed to higher layer, vector(packetBytes)"
vector 329  EPL_tii2014.Subnet1_Host[19].mac  rxPkOk:vector(packetBytes)  ETV
attr interpolationmode  none
attr source  rxPkOk
attr title  "packets received OK, vector(packetBytes)"
vector 330  EPL_tii2014.Subnet1_Host[19].mac  passedUpPk:vector(packetBytes)  ETV
attr interpolationmode  none
attr source  packetSentToUpper
attr title  "packets passed to higher layer, vector(packetBytes)"
vector 345  EPL_tii2014.Subnet2_Host[0].mac  rxPkOk:vector(packetBytes)  ETV
attr interpolationmode  none
attr source  rxPkOk
attr title  "packets received OK, vector(packetBytes)"
vector 346  EPL_tii2014.Subnet2_Host[0].mac  passedUpPk:vector(packetBytes)  ETV
attr interpolationmode  none
attr source  packetSentToUpper
attr title  "packets passed to higher layer, vector(packetBytes)"
vector 361  EPL_tii2014.Subnet2_Host[1].mac  rxPkOk:vector(packetBytes)  ETV
attr interpolationmode  none
attr source  rxPkOk
attr title  "packets received OK, vector(packetBytes)"
vector 362  EPL_tii2014.Subnet2_Host[1].mac  passedUpPk:vector(packetBytes)  ETV
attr interpolationmode  none
attr source  packetSentToUpper
attr title  "packets passed to higher layer, vector(packetBytes)"
vector 377  EPL_tii2014.Subnet2_Host[2].mac  rxPkOk:vector(packetBytes)  ETV
attr interpolationmode  none
attr source  rxPkOk
attr title  "packets received OK, vector(packetBytes)"
vector 378  EPL_tii2014.Subnet2_Host[2].mac  passedUpPk:vector(packetBytes)  ETV
attr interpolationmode  none
attr source  packetSentToUpper
attr title  "packets passed to higher layer, vector(packetBytes)"
vector 393  EPL_tii2014.Subnet2_Host[3].mac  rxPkOk:vector(packetBytes)  ETV
attr interpolationmode  none
attr source  rxPkOk
attr title  "packets received OK, vector(packetBytes)"
vector 394  EPL_tii2014.Subnet2_Host[3].mac  passedUpPk:vector(packetBytes)  ETV
attr interpolationmode  none
attr source  packetSentToUpper
attr title  "packets passed to higher layer, vector(packetBytes)"
vector 409  EPL_tii2014.Subnet2_Host[4].mac  rxPkOk:vector(packetBytes)  ETV
attr interpolationmode  none
attr source  rxPkOk
attr title  "packets received OK, vector(packetBytes)"
vector 410  EPL_tii2014.Subnet2_Host[4].mac  passedUpPk:vector(packetBytes)  ETV
attr interpolationmode  none
attr source  packetSentToUpper
attr title  "packets passed to higher layer, vector(packetBytes)"
vector 425  EPL_tii2014.Subnet2_Host[5].mac  rxPkOk:vector(packetBytes)  ETV
attr interpolationmode  none
attr source  rxPkOk
attr title  "packets received OK, vector(packetBytes)"
vector 426  EPL_tii2014.Subnet2_Host[5].mac  passedUpPk:vector(packetBytes)  ETV
attr interpolationmode  none
attr source  packetSentToUpper
attr title  "packets passed to higher layer, vector(packetBytes)"
vector 441  EPL_tii2014.Subnet2_Host[6].mac  rxPkOk:vector(packetBytes)  ETV
attr interpolationmode  none
attr source  rxPkOk
attr title  "packets received OK, vector(packetBytes)"
vector 442  EPL_tii2014.Subnet2_Host[6].mac  passedUpPk:vector(packetBytes)  ETV
attr interpolationmode  none
attr source  packetSentToUpper
attr title  "packets passed to higher layer, vector(packetBytes)"
vector 457  EPL_tii2014.Subnet2_Host[7].mac  rxPkOk:vector(packetBytes)  ETV
attr interpolationmode  none
attr source  rxPkOk
attr title  "packets received OK, vector(packetBytes)"
vector 458  EPL_tii2014.Subnet2_Host[7].mac  passedUpPk:vector(packetBytes)  ETV
attr interpolationmode  none
attr source  packetSentToUpper
attr title  "packets passed to higher layer, vector(packetBytes)"
vector 473  EPL_tii2014.Subnet2_Host[8].mac  rxPkOk:vector(packetBytes)  ETV
attr interpolationmode  none
attr source  rxPkOk
attr title  "packets received OK, vector(packetBytes)"
vector 474  EPL_tii2014.Subnet2_Host[8].mac  passedUpPk:vector(packetBytes)  ETV
attr interpolationmode  none
attr source  packetSentToUpper
attr title  "packets passed to higher layer, vector(packetBytes)"
vector 489  EPL_tii2014.Subnet2_Host[9].mac  rxPkOk:vector(packetBytes)  ETV
attr interpolationmode  none
attr source  rxPkOk
attr title  "packets received OK, vector(packetBytes)"
vector 490  EPL_tii2014.Subnet2_Host[9].mac  passedUpPk:vector(packetBytes)  ETV
attr interpolationmode  none
attr source  packetSentToUpper
attr title  "packets passed to higher layer, vector(packetBytes)"
vector 22  EPL_tii2014.Subnet1_Host[0].llc  decapPk:vector(packetBytes)  ETV
attr interpolationmode  none
attr source  decapPk
attr title  "packets decapsulated, vector(packetBytes)"
vector 38  EPL_tii2014.Subnet1_Host[1].llc  decapPk:vector(packetBytes)  ETV
attr interpolationmode  none
attr source  decapPk
attr title  "packets decapsulated, vector(packetBytes)"
vector 54  EPL_tii2014.Subnet1_Host[2].llc  decapPk:vector(packetBytes)  ETV
attr interpolationmode  none
attr source  decapPk
attr title  "packets decapsulated, vector(packetBytes)"
vector 70  EPL_tii2014.Subnet1_Host[3].llc  decapPk:vector(packetBytes)  ETV
attr interpolationmode  none
attr source  decapPk
attr title  "packets decapsulated, vector(packetBytes)"
vector 86  EPL_tii2014.Subnet1_Host[4].llc  decapPk:vector(packetBytes)  ETV
attr interpolationmode  none
attr source  decapPk
attr title  "packets decapsulated, vector(packetBytes)"
vector 102  EPL_tii2014.Subnet1_Host[5].llc  decapPk:vector(packetBytes)  ETV
attr interpolationmode  none
attr source  decapPk
attr title  "packets decapsulated, vector(packetBytes)"
vector 118  EPL_tii2014.Subnet1_Host[6].llc  decapPk:vector(packetBytes)  ETV
attr interpolationmode  none
attr source  decapPk
attr title  "packets decapsulated, vector(packetBytes)"
vector 134  EPL_tii2014.Subnet1_Host[7].llc  decapPk:vector(packetBytes)  ETV
attr interpolationmode  none
attr source  decapPk
attr title  "packets decapsulated, vector(packetBytes)"
vector 150  EPL_tii2014.Subnet1_Host[8].llc  decapPk:vector(packetBytes)  ETV
attr interpolationmode  none
attr source  decapPk
attr title  "packets decapsulated, vector(packetBytes)"
vector 166  EPL_tii2014.Subnet1_Host[9].llc  decapPk:vector(packetBytes)  ETV
attr interpolationmode  none
attr source  decapPk
attr title  "packets decapsulated, vector(packetBytes)"
vector 182  EPL_tii2014.Subnet1_Host[10].llc  decapPk:vector(packetBytes)  ETV
attr interpolationmode  none
attr source  decapPk
attr title  "packets decapsulated, vector(packetBytes)"
vector 198  EPL_tii2014.Subnet1_Host[11].llc  decapPk:vector(packetBytes)  ETV
attr interpolationmode  none
attr source  decapPk
attr title  "packets decapsulated, vector(packetBytes)"
vector 214  EPL_tii2014.Subnet1_Host[12].llc  decapPk:vector(packetBytes)  ETV
attr interpolationmode  none
attr source  decapPk
attr title  "packets decapsulated, vector(packetBytes)"
vector 230  EPL_tii2014.Subnet1_Host[13].llc  decapPk:vector(packetBytes)  ETV
attr interpolationmode  none
attr source  decapPk
attr title  "packets decapsulated, vector(packetBytes)"
vector 246  EPL_tii2014.Subnet1_Host[14].llc  decapPk:vector(packetBytes)  ETV
attr interpolationmode  none
attr source  decapPk
attr title  "packets decapsulated, vector(packetBytes)"
vector 262  EPL_tii2014.Subnet1_Host[15].llc  decapPk:vector(packetBytes)  ETV
attr interpolationmode  none
attr source  decapPk
attr title  "packets decapsulated, vector(packetBytes)"
vector 278  EPL_tii2014.Subnet1_Host[16].llc  decapPk:vector(packetBytes)  ETV
attr interpolationmode  none
attr source  decapPk
attr title  "packets decapsulated, vector(packetBytes)"
vector 294  EPL_tii2014.Subnet1_Host[17].llc  decapPk:vector(packetBytes)  ETV
attr interpolationmode  none
attr source  decapPk
attr title  "packets decapsulated, vector(packetBytes)"
vector 310  EPL_tii2014.Subnet1_Host[18].llc  decapPk:vector(packetBytes)  ETV
attr interpolationmode  none
attr source  decapPk
attr title  "packets decapsulated, vector(packetBytes)"
vector 326  EPL_tii2014.Subnet1_Host[19].llc  decapPk:vector(packetBytes)  ETV
attr interpolationmode  none
attr source  decapPk
attr title  "packets decapsulated, vector(packetBytes)"
vector 342  EPL_tii2014.Subnet2_Host[0].llc  decapPk:vector(packetBytes)  ETV
attr interpolationmode  none
attr source  decapPk
attr title  "packets decapsulated, vector(packetBytes)"
vector 358  EPL_tii2014.Subnet2_Host[1].llc  decapPk:vector(packetBytes)  ETV
attr interpolationmode  none
attr source  decapPk
attr title  "packets decapsulated, vector(packetBytes)"
vector 374  EPL_tii2014.Subnet2_Host[2].llc  decapPk:vector(packetBytes)  ETV
attr interpolationmode  none
attr source  decapPk
attr title  "packets decapsulated, vector(packetBytes)"
vector 390  EPL_tii2014.Subnet2_Host[3].llc  decapPk:vector(packetBytes)  ETV
attr interpolationmode  none
attr source  decapPk
attr title  "packets decapsulated, vector(packetBytes)"
vector 406  EPL_tii2014.Subnet2_Host[4].llc  decapPk:vector(packetBytes)  ETV
attr interpolationmode  none
attr source  decapPk
attr title  "packets decapsulated, vector(packetBytes)"
vector 422  EPL_tii2014.Subnet2_Host[5].llc  decapPk:vector(packetBytes)  ETV
attr interpolationmode  none
attr source  decapPk
attr title  "packets decapsulated, vector(packetBytes)"
vector 438  EPL_tii2014.Subnet2_Host[6].llc  decapPk:vector(packetBytes)  ETV
attr interpolationmode  none
attr source  decapPk
attr title  "packets decapsulated, vector(packetBytes)"
vector 454  EPL_tii2014.Subnet2_Host[7].llc  decapPk:vector(packetBytes)  ETV
attr interpolationmode  none
attr source  decapPk
attr title  "packets decapsulated, vector(packetBytes)"
vector 470  EPL_tii2014.Subnet2_Host[8].llc  decapPk:vector(packetBytes)  ETV
attr interpolationmode  none
attr source  decapPk
attr title  "packets decapsulated, vector(packetBytes)"
vector 486  EPL_tii2014.Subnet2_Host[9].llc  decapPk:vector(packetBytes)  ETV
attr interpolationmode  none
attr source  decapPk
attr title  "packets decapsulated, vector(packetBytes)"
vector 33  EPL_tii2014.Subnet1_Host[0].lpi_client  linkLPI_time:vector  ETV
attr source  lpi_time
vector 49  EPL_tii2014.Subnet1_Host[1].lpi_client  linkLPI_time:vector  ETV
attr source  lpi_time
vector 65  EPL_tii2014.Subnet1_Host[2].lpi_client  linkLPI_time:vector  ETV
attr source  lpi_time
vector 81  EPL_tii2014.Subnet1_Host[3].lpi_client  linkLPI_time:vector  ETV
attr source  lpi_time
vector 97  EPL_tii2014.Subnet1_Host[4].lpi_client  linkLPI_time:vector  ETV
attr source  lpi_time
vector 113  EPL_tii2014.Subnet1_Host[5].lpi_client  linkLPI_time:vector  ETV
attr source  lpi_time
vector 129  EPL_tii2014.Subnet1_Host[6].lpi_client  linkLPI_time:vector  ETV
attr source  lpi_time
vector 145  EPL_tii2014.Subnet1_Host[7].lpi_client  linkLPI_time:vector  ETV
attr source  lpi_time
vector 161  EPL_tii2014.Subnet1_Host[8].lpi_client  linkLPI_time:vector  ETV
attr source  lpi_time
vector 177  EPL_tii2014.Subnet1_Host[9].lpi_client  linkLPI_time:vector  ETV
attr source  lpi_time
vector 193  EPL_tii2014.Subnet1_Host[10].lpi_client  linkLPI_time:vector  ETV
attr source  lpi_time
vector 209  EPL_tii2014.Subnet1_Host[11].lpi_client  linkLPI_time:vector  ETV
attr source  lpi_time
vector 225  EPL_tii2014.Subnet1_Host[12].lpi_client  linkLPI_time:vector  ETV
attr source  lpi_time
vector 241  EPL_tii2014.Subnet1_Host[13].lpi_client  linkLPI_time:vector  ETV
attr source  lpi_time
vector 257  EPL_tii2014.Subnet1_Host[14].lpi_client  linkLPI_time:vector  ETV
attr source  lpi_time
vector 273  EPL_tii2014.Subnet1_Host[15].lpi_client  linkLPI_time:vector  ETV
attr source  lpi_time
vector 289  EPL_tii2014.Subnet1_Host[16].lpi_client  linkLPI_time:vector  ETV
attr source  lpi_time
vector 305  EPL_tii2014.Subnet1_Host[17].lpi_client  linkLPI_time:vector  ETV
attr source  lpi_time
vector 321  EPL_tii2014.Subnet1_Host[18].lpi_client  linkLPI_time:vector  ETV
attr source  lpi_time
vector 337  EPL_tii2014.Subnet1_Host[19].lpi_client  linkLPI_time:vector  ETV
attr source  lpi_time
vector 353  EPL_tii2014.Subnet2_Host[0].lpi_client  linkLPI_time:vector  ETV
attr source  lpi_time
vector 369  EPL_tii2014.Subnet2_Host[1].lpi_client  linkLPI_time:vector  ETV
attr source  lpi_time
vector 385  EPL_tii2014.Subnet2_Host[2].lpi_client  linkLPI_time:vector  ETV
attr source  lpi_time
vector 401  EPL_tii2014.Subnet2_Host[3].lpi_client  linkLPI_time:vector  ETV
attr source  lpi_time
vector 417  EPL_tii2014.Subnet2_Host[4].lpi_client  linkLPI_time:vector  ETV
attr source  lpi_time
vector 433  EPL_tii2014.Subnet2_Host[5].lpi_client  linkLPI_time:vector  ETV
attr source  lpi_time
vector 449  EPL_tii2014.Subnet2_Host[6].lpi_client  linkLPI_time:vector  ETV
attr source  lpi_time
vector 465  EPL_tii2014.Subnet2_Host[7].lpi_client  linkLPI_time:vector  ETV
attr source  lpi_time
vector 481  EPL_tii2014.Subnet2_Host[8].lpi_client  linkLPI_time:vector  ETV
attr source  lpi_time
vector 497  EPL_tii2014.Subnet2_Host[9].lpi_client  linkLPI_time:vector  ETV
attr source  lpi_time
vector 522  EPL_tii2014.DC_CN2.mac  rxPkOk:vector(packetBytes)  ETV
attr interpolationmode  none
attr source  rxPkOk
attr title  "packets received OK, vector(packetBytes)"
vector 523  EPL_tii2014.DC_CN2.mac  passedUpPk:vector(packetBytes)  ETV
attr interpolationmode  none
attr source  packetSentToUpper
attr title  "packets passed to higher layer, vector(packetBytes)"
vector 519  EPL_tii2014.DC_CN2.llc  decapPk:vector(packetBytes)  ETV
attr interpolationmode  none
attr source  decapPk
attr title  "packets decapsulated, vector(packetBytes)"
vector 530  EPL_tii2014.DC_CN2.lpi_client  linkLPI_time:vector  ETV
attr source  lpi_time
vector 4  EPL_tii2014.PLC.MN  sentPk:vector(packetBytes)  ETV
attr interpolationmode  none
attr source  sentPk
attr title  "packets sent, vector(packetBytes)"
vector 19  EPL_tii2014.Subnet1_Host[0].CN  rcvdPk:vector(packetBytes)  ETV
attr interpolationmode  none
attr source  rcvdPk
attr title  "packets received, vector(packetBytes)"
vector 20  EPL_tii2014.Subnet1_Host[0].CN  sentPk:vector(packetBytes)  ETV
attr interpolationmode  none
attr source  sentPk
attr title  "packets sent, vector(packetBytes)"
vector 21  EPL_tii2014.Subnet1_Host[0].llc  encapPk:vector(packetBytes)  ETV
attr interpolationmode  none
attr source  encapPk
attr title  "packets encapsulated, vector(packetBytes)"
vector 29  EPL_tii2014.Subnet1_Host[0].mac  rxPkFromHL:vector(packetBytes)  ETV
attr interpolationmode  none
attr source  rxPkFromHL
attr title  "packet bytes from higher layer, vector(packetBytes)"
vector 24  EPL_tii2014.Subnet1_Host[0].mac  txPk:vector(packetBytes)  ETV
attr interpolationmode  none
attr source  txPk
attr title  "packets transmitted, vector(packetBytes)"